
units metal     # mass = g/mole, distance = Å, time = ps, energy = eV, force = eV/Å
atom_style atomic
read_data /home/epsilon/vld/univ5120/VLD/Thesis/llms-for-lammps/structures/example.data
Reading data file ...
  orthogonal box = (0 0 0) to (15.854536 15.854536 15.854536)
  4 by 4 by 8 MPI processor grid
  reading atoms ...
  200 atoms
  read_data CPU = 0.110 seconds
mass * 12.011   # all atoms are Carbon and therefore have mass ~12

pair_style quip
pair_coeff * * /home/epsilon/vld/univ5120/VLD/Thesis/llms-for-lammps/data/carbon.xml "" 6

neigh_modify every 1 delay 0 check yes
timestep 0.001

variable nAtoms equal atoms

fix removeMomentum all momentum 1 linear 1 1 1

compute T all temp
variable P equal press
variable v equal vol
variable PE_Atom equal c_PE/v_nAtoms

fix TempAve all ave/time 100 1 100 c_T
fix PressAve all ave/time 100 1 100 v_P
fix vAve all ave/time 100 1 100 v_v
fix PEAve_Atom all ave/time 100 1 100 v_PE_Atom

compute PE all pe pair
compute MSD all msd

thermo_style custom step cpu temp f_TempAve press f_PressAve f_PEAve_Atom vol f_vAve c_MSD[4]
thermo_modify flush yes
thermo 100

dump traj all atom 100 /home/epsilon/vld/univ5120/VLD/Thesis/llms-for-lammps/run/run_id0/dump/dump_file.dump.*.dat

velocity all create 3000 42

run 0
WARNING: No fixes with time integration, atoms won't move (src/verlet.cpp:60)
Neighbor list info ...
  update every 1 steps, delay 0 steps, check yes
  max neighbors/atom: 2000, page size: 100000
  master list distance cutoff = 5.7
  ghost atom cutoff = 5.7
  binsize = 2.85, bins = 6 6 6
  1 neighbor lists, perpetual/occasional/extra = 1 0 0
  (1) pair quip, perpetual
      attributes: full, newton on
      pair build: full/bin/atomonly
      stencil: full/bin/3d
      bin: standard
WARNING: Proc sub-domain size < neighbor skin, could lead to lost atoms (src/domain.cpp:970)
Per MPI rank memory allocation (min/avg/max) = 3.341 | 3.873 | 4.341 Mbytes
   Step          CPU            Temp        f_TempAve        Press        f_PressAve    f_PEAve_Atom      Volume         f_vAve        c_MSD[4]   
         0   0              3000           3000           4801.15        4801.15       -157.8272       3985.296       3985.296       0            
Loop time of 2.69301e-05 on 128 procs for 0 steps with 200 atoms

51.6% CPU use with 128 MPI tasks x 1 OpenMP threads

MPI task timing breakdown:
Section |  min time  |  avg time  |  max time  |%varavg| %total
---------------------------------------------------------------
Pair    | 0          | 0          | 0          |   0.0 |  0.00
Neigh   | 0          | 0          | 0          |   0.0 |  0.00
Comm    | 0          | 0          | 0          |   0.0 |  0.00
Output  | 0          | 0          | 0          |   0.0 |  0.00
Modify  | 0          | 0          | 0          |   0.0 |  0.00
Other   |            | 2.693e-05  |            |       |100.00

Nlocal:         1.5625 ave           6 max           0 min
Histogram: 60 8 0 12 0 30 13 0 4 1
Nghost:        156.531 ave         171 max         145 min
Histogram: 3 13 13 25 23 21 18 3 8 1
Neighs:              0 ave           0 max           0 min
Histogram: 128 0 0 0 0 0 0 0 0 0
FullNghs:         76.5 ave         367 max           0 min
Histogram: 63 7 8 18 20 4 2 2 1 3

Total # of neighbors = 9792
Ave neighs/atom = 48.96
Neighbor list builds = 0
Dangerous builds = 0

# (AI) PHASES:

# Phase 1:
fix integrate all nvt temp 5000 5000 0.1
run 50000
WARNING: Proc sub-domain size < neighbor skin, could lead to lost atoms (src/domain.cpp:970)
Per MPI rank memory allocation (min/avg/max) = 3.341 | 3.873 | 4.341 Mbytes
   Step          CPU            Temp        f_TempAve        Press        f_PressAve    f_PEAve_Atom      Volume         f_vAve        c_MSD[4]   
         0   0              3000           3000           4801.15        4801.15       -157.8272       3985.296       3985.296       0            
       100   6.9989231      1894.3416      1894.3416     -6806.8431     -6806.8431     -157.61701      3985.296       3985.296       0.1590892    
       200   12.209915      2458.4836      2458.4836     -12604.311     -12604.311     -157.5703       3985.296       3985.296       0.37319068   
       300   16.890534      2644.1265      2644.1265     -17921.72      -17921.72      -157.4373       3985.296       3985.296       0.86609422   
       400   21.485922      3453.3395      3453.3395      1865.6719      1865.6719     -157.35635      3985.296       3985.296       1.1311873    
       500   26.42291       4188.051       4188.051      -13100.526     -13100.526     -157.2482       3985.296       3985.296       1.1047527    
       600   30.99083       4857.2004      4857.2004      5708.2164      5708.2164     -157.13572      3985.296       3985.296       1.0983965    
       700   35.585912      4808.2712      4808.2712      7278.4108      7278.4108     -156.9616       3985.296       3985.296       1.2890096    
       800   39.899905      5030.3202      5030.3202     -14073.848     -14073.848     -156.88463      3985.296       3985.296       1.5518062    
       900   44.236905      5538.1355      5538.1355     -21946.717     -21946.717     -156.92454      3985.296       3985.296       2.0648153    
      1000   48.619913      5117.0017      5117.0017      7799.9764      7799.9764     -156.92098      3985.296       3985.296       2.2160489    
      1100   52.738947      4591.8221      4591.8221     -19610.52      -19610.52      -156.91591      3985.296       3985.296       2.6739259    
      1200   57.074899      4687.5564      4687.5564      981.9697       981.9697      -156.90259      3985.296       3985.296       3.0712422    
      1300   61.340912      4984.6037      4984.6037      18414.743      18414.743     -156.83665      3985.296       3985.296       3.2600188    
      1400   65.488915      5439.3009      5439.3009      15906.61       15906.61      -156.80837      3985.296       3985.296       3.3314606    
      1500   69.569906      4688.0901      4688.0901     -32805.697     -32805.697     -156.69837      3985.296       3985.296       4.1399017    
      1600   73.701914      4990.7056      4990.7056     -8532.787      -8532.787      -156.76023      3985.296       3985.296       4.5708489    
      1700   77.789918      4501.1828      4501.1828     -6093.2029     -6093.2029     -156.70845      3985.296       3985.296       4.7868208    
      1800   81.873918      5085.722       5085.722       7933.5037      7933.5037     -156.74722      3985.296       3985.296       4.5602568    
      1900   86.218927      5255.2589      5255.2589     -1626.0297     -1626.0297     -156.71057      3985.296       3985.296       4.548099     
      2000   90.26991       5198.1318      5198.1318      15337.349      15337.349     -156.68615      3985.296       3985.296       5.5012616    
      2100   94.181937      4905.1294      4905.1294      4091.9202      4091.9202     -156.67274      3985.296       3985.296       5.8661669    
      2200   98.225909      5048.7663      5048.7663      8508.5909      8508.5909     -156.71011      3985.296       3985.296       6.3805331    
      2300   102.23991      4922.9983      4922.9983      27098.04       27098.04      -156.72751      3985.296       3985.296       7.1448757    
      2400   106.36291      4666.1934      4666.1934     -10653.855     -10653.855     -156.71996      3985.296       3985.296       8.622408     
      2500   110.66691      4532.2033      4532.2033      21368.281      21368.281     -156.71467      3985.296       3985.296       9.9137952    
      2600   114.88191      4676.2398      4676.2398     -8038.4717     -8038.4717     -156.66158      3985.296       3985.296       11.512636    
      2700   119.11891      4774.9164      4774.9164      3502.2686      3502.2686     -156.61166      3985.296       3985.296       13.789762    
      2800   123.34591      4862.5075      4862.5075      12137.988      12137.988     -156.6047       3985.296       3985.296       16.637775    
      2900   127.8489       5217.2383      5217.2383      3839.3011      3839.3011     -156.62926      3985.296       3985.296       18.511706    
      3000   132.13591      4908.1581      4908.1581      16438.286      16438.286     -156.55953      3985.296       3985.296       18.166693    
      3100   136.5039       5249.8748      5249.8748     -844.16006     -844.16006     -156.54616      3985.296       3985.296       18.560771    
      3200   140.5729       5120.1775      5120.1775     -3628.3442     -3628.3442     -156.49714      3985.296       3985.296       19.2531      
      3300   144.57991      5055.4753      5055.4753     -1402.7516     -1402.7516     -156.45921      3985.296       3985.296       19.05248     
      3400   148.87391      5305.9686      5305.9686      14638.255      14638.255     -156.44472      3985.296       3985.296       20.025281    
      3500   153.26193      5827.3821      5827.3821     -26676.615     -26676.615     -156.50451      3985.296       3985.296       21.405806    
      3600   157.8839       4794.8103      4794.8103     -6408.5797     -6408.5797     -156.45659      3985.296       3985.296       22.310556    
      3700   162.60191      5110.463       5110.463       23849.502      23849.502     -156.53661      3985.296       3985.296       23.528323    
      3800   167.41391      4834.1056      4834.1056      16156.83       16156.83      -156.50231      3985.296       3985.296       24.917681    
      3900   171.71892      5039.9724      5039.9724     -15213.526     -15213.526     -156.48049      3985.296       3985.296       25.851626    
      4000   175.7069       5178.0622      5178.0622      12093.617      12093.617     -156.39874      3985.296       3985.296       26.191664    
      4100   179.72993      5358.4451      5358.4451      9135.5171      9135.5171     -156.41458      3985.296       3985.296       26.961113    
      4200   184.22091      5090.5086      5090.5086      18481.019      18481.019     -156.37196      3985.296       3985.296       28.356163    
      4300   188.5889       5141.8769      5141.8769      4636.578       4636.578      -156.36129      3985.296       3985.296       28.999555    
      4400   192.93791      4375.695       4375.695       28244.84       28244.84      -156.23672      3985.296       3985.296       29.200358    
      4500   197.06792      5512.9754      5512.9754      6930.1541      6930.1541     -156.32367      3985.296       3985.296       30.580167    
      4600   201.2779       4643.3445      4643.3445     -12440.15      -12440.15      -156.19438      3985.296       3985.296       33.03433     
      4700   205.44892      5305.1558      5305.1558      13040.077      13040.077     -156.31143      3985.296       3985.296       34.328607    
