
units metal     # mass = g/mole, distance = Å, time = ps, energy = eV, force = eV/Å
atom_style atomic
read_data /home/epsilon/vld/univ5120/VLD/Thesis/llms-for-lammps/structures/example.data
Reading data file ...
  orthogonal box = (0 0 0) to (15.854536 15.854536 15.854536)
  4 by 4 by 8 MPI processor grid
  reading atoms ...
  200 atoms
  read_data CPU = 0.135 seconds
mass * 12.011   # all atoms are Carbon and therefore have mass ~12

pair_style quip
pair_coeff * * /home/epsilon/vld/univ5120/VLD/Thesis/llms-for-lammps/data/carbon.xml "" 6

neigh_modify every 1 delay 0 check yes
timestep 0.001

variable nAtoms equal atoms

fix removeMomentum all momentum 1 linear 1 1 1

compute T all temp
variable P equal press
variable v equal vol
variable PE_Atom equal c_PE/v_nAtoms

fix TempAve all ave/time 100 1 100 c_T
fix PressAve all ave/time 100 1 100 v_P
fix vAve all ave/time 100 1 100 v_v
fix PEAve_Atom all ave/time 100 1 100 v_PE_Atom

compute PE all pe pair
compute MSD all msd

thermo_style custom step cpu temp f_TempAve press f_PressAve f_PEAve_Atom vol f_vAve c_MSD[4]
thermo_modify flush yes
thermo 100

dump traj all atom 100 /home/epsilon/vld/univ5120/VLD/Thesis/llms-for-lammps/run/run_id0/dump/dump_file.dump.*.dat

velocity all create 3000 42

run 0
WARNING: No fixes with time integration, atoms won't move (src/verlet.cpp:60)
Neighbor list info ...
  update every 1 steps, delay 0 steps, check yes
  max neighbors/atom: 2000, page size: 100000
  master list distance cutoff = 5.7
  ghost atom cutoff = 5.7
  binsize = 2.85, bins = 6 6 6
  1 neighbor lists, perpetual/occasional/extra = 1 0 0
  (1) pair quip, perpetual
      attributes: full, newton on
      pair build: full/bin/atomonly
      stencil: full/bin/3d
      bin: standard
WARNING: Proc sub-domain size < neighbor skin, could lead to lost atoms (src/domain.cpp:970)
Per MPI rank memory allocation (min/avg/max) = 3.341 | 3.873 | 4.341 Mbytes
   Step          CPU            Temp        f_TempAve        Press        f_PressAve    f_PEAve_Atom      Volume         f_vAve        c_MSD[4]   
         0   0              3000           3000           4801.15        4801.15       -157.8272       3985.296       3985.296       0            
Loop time of 1.86416e-05 on 128 procs for 0 steps with 200 atoms

50.3% CPU use with 128 MPI tasks x 1 OpenMP threads

MPI task timing breakdown:
Section |  min time  |  avg time  |  max time  |%varavg| %total
---------------------------------------------------------------
Pair    | 0          | 0          | 0          |   0.0 |  0.00
Neigh   | 0          | 0          | 0          |   0.0 |  0.00
Comm    | 0          | 0          | 0          |   0.0 |  0.00
Output  | 0          | 0          | 0          |   0.0 |  0.00
Modify  | 0          | 0          | 0          |   0.0 |  0.00
Other   |            | 1.864e-05  |            |       |100.00

Nlocal:         1.5625 ave           6 max           0 min
Histogram: 60 8 0 12 0 30 13 0 4 1
Nghost:        156.531 ave         171 max         145 min
Histogram: 3 13 13 25 23 21 18 3 8 1
Neighs:              0 ave           0 max           0 min
Histogram: 128 0 0 0 0 0 0 0 0 0
FullNghs:         76.5 ave         367 max           0 min
Histogram: 63 7 8 18 20 4 2 2 1 3

Total # of neighbors = 9792
Ave neighs/atom = 48.96
Neighbor list builds = 0
Dangerous builds = 0

# PHASES:

# Phase 1:
fix integrate all nvt temp 5000 5000 0.1
run 50000
WARNING: Proc sub-domain size < neighbor skin, could lead to lost atoms (src/domain.cpp:970)
Per MPI rank memory allocation (min/avg/max) = 3.341 | 3.873 | 4.341 Mbytes
   Step          CPU            Temp        f_TempAve        Press        f_PressAve    f_PEAve_Atom      Volume         f_vAve        c_MSD[4]   
         0   0              3000           3000           4801.15        4801.15       -157.8272       3985.296       3985.296       0            
       100   4.9981387      1894.3416      1894.3416     -6806.8431     -6806.8431     -157.61701      3985.296       3985.296       0.1590892    
       200   10.005142      2458.4836      2458.4836     -12604.311     -12604.311     -157.5703       3985.296       3985.296       0.37319068   
       300   14.676141      2644.1265      2644.1265     -17921.72      -17921.72      -157.4373       3985.296       3985.296       0.86609422   
       400   19.21225       3453.3395      3453.3395      1865.6719      1865.6719     -157.35635      3985.296       3985.296       1.1311873    
       500   24.051137      4188.051       4188.051      -13100.526     -13100.526     -157.2482       3985.296       3985.296       1.1047527    
       600   28.738138      4857.2004      4857.2004      5708.2164      5708.2164     -157.13572      3985.296       3985.296       1.0983965    
       700   33.335153      4808.2712      4808.2712      7278.4108      7278.4108     -156.9616       3985.296       3985.296       1.2890096    
       800   37.697157      5030.3202      5030.3202     -14073.848     -14073.848     -156.88463      3985.296       3985.296       1.5518062    
       900   42.035133      5538.1355      5538.1355     -21946.717     -21946.717     -156.92454      3985.296       3985.296       2.0648153    
      1000   46.538141      5117.0017      5117.0017      7799.9764      7799.9764     -156.92098      3985.296       3985.296       2.2160489    
      1100   50.650137      4591.8221      4591.8221     -19610.52      -19610.52      -156.91591      3985.296       3985.296       2.6739259    
      1200   54.917139      4687.5564      4687.5564      981.9697       981.9697      -156.90259      3985.296       3985.296       3.0712422    
      1300   59.19814       4984.6037      4984.6037      18414.743      18414.743     -156.83665      3985.296       3985.296       3.2600188    
      1400   63.32014       5439.3009      5439.3009      15906.61       15906.61      -156.80837      3985.296       3985.296       3.3314606    
      1500   67.346138      4688.0901      4688.0901     -32805.697     -32805.697     -156.69837      3985.296       3985.296       4.1399017    
      1600   71.398143      4990.7056      4990.7056     -8532.787      -8532.787      -156.76023      3985.296       3985.296       4.5708489    
      1700   75.423147      4501.1828      4501.1828     -6093.2029     -6093.2029     -156.70845      3985.296       3985.296       4.7868208    
      1800   80.00414       5085.722       5085.722       7933.5037      7933.5037     -156.74722      3985.296       3985.296       4.5602568    
      1900   84.446162      5255.2589      5255.2589     -1626.0297     -1626.0297     -156.71057      3985.296       3985.296       4.548099     
      2000   88.548149      5198.1318      5198.1318      15337.349      15337.349     -156.68615      3985.296       3985.296       5.5012616    
      2100   92.491139      4905.1294      4905.1294      4091.9202      4091.9202     -156.67274      3985.296       3985.296       5.8661669    
      2200   96.581277      5048.7663      5048.7663      8508.5909      8508.5909     -156.71011      3985.296       3985.296       6.3805331    
      2300   100.85015      4922.9983      4922.9983      27098.04       27098.04      -156.72751      3985.296       3985.296       7.1448757    
      2400   104.92714      4666.1934      4666.1934     -10653.855     -10653.855     -156.71996      3985.296       3985.296       8.622408     
      2500   109.15614      4532.2033      4532.2033      21368.281      21368.281     -156.71467      3985.296       3985.296       9.9137952    
      2600   113.38915      4676.2398      4676.2398     -8038.4717     -8038.4717     -156.66158      3985.296       3985.296       11.512636    
      2700   117.56114      4774.9164      4774.9164      3502.2686      3502.2686     -156.61166      3985.296       3985.296       13.789762    
      2800   121.66014      4862.5075      4862.5075      12137.988      12137.988     -156.6047       3985.296       3985.296       16.637775    
      2900   126.06213      5217.2383      5217.2383      3839.3011      3839.3011     -156.62926      3985.296       3985.296       18.511706    
      3000   130.25314      4908.1581      4908.1581      16438.286      16438.286     -156.55953      3985.296       3985.296       18.166693    
      3100   134.54214      5249.8748      5249.8748     -844.16006     -844.16006     -156.54616      3985.296       3985.296       18.560771    
      3200   138.70114      5120.1775      5120.1775     -3628.3442     -3628.3442     -156.49714      3985.296       3985.296       19.2531      
      3300   142.70415      5055.4753      5055.4753     -1402.7516     -1402.7516     -156.45921      3985.296       3985.296       19.05248     
      3400   146.99214      5305.9686      5305.9686      14638.255      14638.255     -156.44472      3985.296       3985.296       20.025281    
      3500   151.22014      5827.3821      5827.3821     -26676.615     -26676.615     -156.50451      3985.296       3985.296       21.405806    
      3600   155.83748      4794.8103      4794.8103     -6408.5797     -6408.5797     -156.45659      3985.296       3985.296       22.310556    
      3700   160.48719      5110.463       5110.463       23849.502      23849.502     -156.53661      3985.296       3985.296       23.528323    
      3800   164.95816      4834.1056      4834.1056      16156.83       16156.83      -156.50231      3985.296       3985.296       24.917681    
      3900   169.20914      5039.9724      5039.9724     -15213.526     -15213.526     -156.48049      3985.296       3985.296       25.851626    
      4000   173.19746      5178.0622      5178.0622      12093.617      12093.617     -156.39874      3985.296       3985.296       26.191664    
      4100   177.15414      5358.4451      5358.4451      9135.5171      9135.5171     -156.41458      3985.296       3985.296       26.961113    
      4200   181.68914      5090.5086      5090.5086      18481.019      18481.019     -156.37196      3985.296       3985.296       28.356163    
      4300   185.96814      5141.8769      5141.8769      4636.578       4636.578      -156.36129      3985.296       3985.296       28.999555    
      4400   190.30847      4375.695       4375.695       28244.84       28244.84      -156.23672      3985.296       3985.296       29.200358    
      4500   194.42414      5512.9754      5512.9754      6930.1541      6930.1541     -156.32367      3985.296       3985.296       30.580167    
      4600   198.60113      4643.3445      4643.3445     -12440.15      -12440.15      -156.19438      3985.296       3985.296       33.03433     
      4700   202.81714      5305.1558      5305.1558      13040.077      13040.077     -156.31143      3985.296       3985.296       34.328607    
      4800   206.85416      5163.5613      5163.5613      11022.567      11022.567     -156.37552      3985.296       3985.296       35.624638    
      4900   211.09614      4955.0767      4955.0767      6304.9853      6304.9853     -156.37963      3985.296       3985.296       36.420015    
      5000   214.91615      4521.1585      4521.1585     -1005.2948     -1005.2948     -156.32323      3985.296       3985.296       38.473438    
      5100   219.51316      5134.4985      5134.4985     -8470.5422     -8470.5422     -156.31871      3985.296       3985.296       39.958944    
      5200   223.63414      4859.0219      4859.0219     -2468.6053     -2468.6053     -156.20204      3985.296       3985.296       40.838303    
      5300   227.49617      5190.0841      5190.0841     -5052.753      -5052.753      -156.25665      3985.296       3985.296       43.928621    
      5400   231.28715      4731.2588      4731.2588      4523.8753      4523.8753     -156.2447       3985.296       3985.296       46.556979    
      5500   235.25414      4891.1755      4891.1755      15388.022      15388.022     -156.29479      3985.296       3985.296       48.472742    
      5600   238.95214      4703.7896      4703.7896     -8237.4567     -8237.4567     -156.31663      3985.296       3985.296       51.06727     
      5700   242.50317      4952.1379      4952.1379     -2621.5078     -2621.5078     -156.35018      3985.296       3985.296       53.409733    
      5800   245.97313      5117.0615      5117.0615      379.20882      379.20882     -156.29745      3985.296       3985.296       55.544138    
      5900   249.65915      5351.913       5351.913      -5628.6541     -5628.6541     -156.2812       3985.296       3985.296       54.834668    
      6000   253.22915      4759.6152      4759.6152     -12857.865     -12857.865     -156.21102      3985.296       3985.296       54.5819      
      6100   257.03814      5090.4141      5090.4141     -4423.5392     -4423.5392     -156.25595      3985.296       3985.296       55.278628    
      6200   260.67914      5158.6374      5158.6374      27695.612      27695.612     -156.31558      3985.296       3985.296       55.764024    
      6300   264.25314      4768.3267      4768.3267     -7721.8006     -7721.8006     -156.30504      3985.296       3985.296       57.47363     
      6400   267.90113      4518.8008      4518.8008      9095.2521      9095.2521     -156.30663      3985.296       3985.296       57.989738    
      6500   271.72914      4571.4051      4571.4051     -6635.5052     -6635.5052     -156.27937      3985.296       3985.296       59.943671    
      6600   275.29715      4623.6777      4623.6777     -5329.5394     -5329.5394     -156.19081      3985.296       3985.296       61.142739    
      6700   280.25115      5318.0819      5318.0819     -4627.2567     -4627.2567     -156.2565       3985.296       3985.296       61.752458    
      6800   284.14914      5042.299       5042.299       3935.1212      3935.1212     -156.25194      3985.296       3985.296       63.511937    
      6900   287.93314      4655.406       4655.406       2631.5089      2631.5089     -156.24269      3985.296       3985.296       65.876626    
      7000   291.76615      4699.9512      4699.9512     -1101.5399     -1101.5399     -156.31693      3985.296       3985.296       67.453873    
      7100   296.16114      4318.0563      4318.0563     -17617.585     -17617.585     -156.2957       3985.296       3985.296       68.551754    
      7200   300.47414      4978.9013      4978.9013      18620.223      18620.223     -156.28532      3985.296       3985.296       71.551329    
      7300   304.60813      5228.1237      5228.1237      12967.094      12967.094     -156.29701      3985.296       3985.296       72.24216     
      7400   308.38927      5106.8269      5106.8269     -11749.65      -11749.65      -156.29228      3985.296       3985.296       74.29392     
      7500   311.91014      4964.9967      4964.9967      21928.753      21928.753     -156.27502      3985.296       3985.296       77.44702     
      7600   315.37114      4837.0407      4837.0407      12838.442      12838.442     -156.25804      3985.296       3985.296       76.739414    
      7700   318.92515      5256.6912      5256.6912      19485.777      19485.777     -156.2791       3985.296       3985.296       78.060258    
      7800   322.72714      5106.674       5106.674       6016.5858      6016.5858     -156.20408      3985.296       3985.296       79.676291    
      7900   326.66714      5219.4318      5219.4318     -10594.073     -10594.073     -156.21943      3985.296       3985.296       80.254167    
      8000   330.43627      5004.7983      5004.7983     -3780.852      -3780.852      -156.30514      3985.296       3985.296       82.393219    
      8100   333.97816      4814.4045      4814.4045     -11065.329     -11065.329     -156.29664      3985.296       3985.296       85.690933    
      8200   337.65814      4801.6861      4801.6861      7551.624       7551.624      -156.2623       3985.296       3985.296       89.215009    
      8300   341.66714      5193.2382      5193.2382      11228.373      11228.373     -156.24397      3985.296       3985.296       89.925289    
      8400   345.87614      4770.2718      4770.2718      10613.311      10613.311     -156.14183      3985.296       3985.296       93.956442    
      8500   350.20214      5294.1366      5294.1366     -6936.5882     -6936.5882     -156.22866      3985.296       3985.296       97.098701    
      8600   354.31214      5059.9078      5059.9078      17070.619      17070.619     -156.22706      3985.296       3985.296       98.106207    
      8700   358.79416      5091.4371      5091.4371     -18400.862     -18400.862     -156.23475      3985.296       3985.296       100.74032    
      8800   363.06014      5682.6704      5682.6704     -828.58271     -828.58271     -156.31499      3985.296       3985.296       105.60312    
      8900   367.71015      5289.38        5289.38        27614.09       27614.09      -156.29679      3985.296       3985.296       108.84553    
      9000   372.25113      4710.9134      4710.9134      3216.064       3216.064      -156.25807      3985.296       3985.296       112.08909    
      9100   376.60515      4838.0604      4838.0604      6562.8716      6562.8716     -156.3016       3985.296       3985.296       113.80787    
      9200   380.71614      4779.7302      4779.7302      2495.7477      2495.7477     -156.26915      3985.296       3985.296       116.46799    
      9300   384.83313      5198.0948      5198.0948     -18498.92      -18498.92      -156.25699      3985.296       3985.296       120.17003    
      9400   388.46813      5324.3421      5324.3421      16853.295      16853.295     -156.25916      3985.296       3985.296       121.27905    
      9500   392.11513      4828.2633      4828.2633      18224.485      18224.485     -156.22261      3985.296       3985.296       123.11355    
      9600   396.06014      4580.0705      4580.0705      20335.485      20335.485     -156.28403      3985.296       3985.296       124.81599    
      9700   399.89514      4600.2459      4600.2459     -3905.6915     -3905.6915     -156.32715      3985.296       3985.296       128.73906    
      9800   403.67614      4941.4817      4941.4817      10349.644      10349.644     -156.34183      3985.296       3985.296       127.53762    
      9900   407.59714      5075.3285      5075.3285      31540.143      31540.143     -156.31581      3985.296       3985.296       127.78054    
     10000   411.55515      5376.0834      5376.0834      18926.426      18926.426     -156.31546      3985.296       3985.296       130.60863    
     10100   415.73314      5646.2253      5646.2253      22937.607      22937.607     -156.2441       3985.296       3985.296       135.03178    
     10200   419.88914      5069.2582      5069.2582      7908.6981      7908.6981     -156.21076      3985.296       3985.296       141.25744    
     10300   423.73713      4882.6801      4882.6801      143.93953      143.93953     -156.25216      3985.296       3985.296       141.34825    
     10400   428.24414      4989.9553      4989.9553      21347.628      21347.628     -156.28311      3985.296       3985.296       140.79044    
     10500   432.66315      5223.5742      5223.5742      3194.0784      3194.0784     -156.29142      3985.296       3985.296       143.52243    
     10600   436.81214      5275.7941      5275.7941      6771.1425      6771.1425     -156.23731      3985.296       3985.296       144.51373    
     10700   440.68715      5363.6946      5363.6946     -19170.42      -19170.42      -156.17087      3985.296       3985.296       148.39303    
     10800   444.99314      5252.0895      5252.0895      3588.375       3588.375      -156.2407       3985.296       3985.296       148.2363     
     10900   449.58814      5247.6356      5247.6356      21799.836      21799.836     -156.31402      3985.296       3985.296       147.05798    
     11000   454.2603       4788.7887      4788.7887      2008.5759      2008.5759     -156.26608      3985.296       3985.296       146.64541    
     11100   458.89114      5412.5507      5412.5507      41534.602      41534.602     -156.31417      3985.296       3985.296       146.79108    
     11200   463.68315      5157.9868      5157.9868     -6011.797      -6011.797      -156.23443      3985.296       3985.296       149.10702    
     11300   467.84814      5281.6568      5281.6568      15910.971      15910.971     -156.19665      3985.296       3985.296       152.38403    
     11400   471.71614      5065.8073      5065.8073     -10530.141     -10530.141     -156.20271      3985.296       3985.296       155.5744     
     11500   475.55413      4612.0041      4612.0041     -3848.8832     -3848.8832     -156.24372      3985.296       3985.296       153.5984     
     11600   479.32013      4840.7111      4840.7111      23051.365      23051.365     -156.28637      3985.296       3985.296       153.62989    
     11700   483.41014      4835.7201      4835.7201     -17130.053     -17130.053     -156.26185      3985.296       3985.296       155.78706    
     11800   487.44214      4910.3171      4910.3171      3222.3493      3222.3493     -156.20935      3985.296       3985.296       157.60799    
     11900   491.47114      5306.8661      5306.8661      12056.483      12056.483     -156.17433      3985.296       3985.296       161.36959    
     12000   495.3317       5290.7122      5290.7122      1985.4356      1985.4356     -156.1987       3985.296       3985.296       166.81816    
     12100   498.95615      5453.2783      5453.2783      7306.0783      7306.0783     -156.27844      3985.296       3985.296       169.83103    
     12200   502.42015      4870.4356      4870.4356      461.3551       461.3551      -156.25616      3985.296       3985.296       171.61802    
     12300   505.99313      5026.129       5026.129       4968.0822      4968.0822     -156.32214      3985.296       3985.296       170.69296    
     12400   509.62515      4780.4808      4780.4808     -6030.206      -6030.206      -156.32039      3985.296       3985.296       173.79483    
     12500   513.30213      4839.886       4839.886       14908.345      14908.345     -156.28229      3985.296       3985.296       174.62928    
     12600   517.05416      5018.1189      5018.1189      7100.8372      7100.8372     -156.20794      3985.296       3985.296       176.67541    
     12700   521.08213      5149.2859      5149.2859      25882.739      25882.739     -156.21107      3985.296       3985.296       176.19781    
     12800   524.94914      5084.1597      5084.1597     -7237.2791     -7237.2791     -156.18149      3985.296       3985.296       180.34215    
     12900   528.84513      5691.1058      5691.1058      15027.915      15027.915     -156.23135      3985.296       3985.296       183.36749    
     13000   532.80014      4777.8979      4777.8979      27624.427      27624.427     -156.21596      3985.296       3985.296       185.19221    
     13100   536.41514      5456.0529      5456.0529     -4482.9968     -4482.9968     -156.35648      3985.296       3985.296       186.28646    
     13200   540.27113      4958.3434      4958.3434     -3290.613      -3290.613      -156.32626      3985.296       3985.296       188.61785    
     13300   544.34214      5116.0682      5116.0682      11318.857      11318.857     -156.35378      3985.296       3985.296       188.8546     
     13400   548.42116      5373.1517      5373.1517      52060.847      52060.847     -156.34775      3985.296       3985.296       188.98923    
     13500   552.42613      5511.5576      5511.5576     -3329.9015     -3329.9015     -156.28386      3985.296       3985.296       191.85321    
     13600   556.37314      5281.3717      5281.3717     -5818.9771     -5818.9771     -156.26401      3985.296       3985.296       194.72957    
     13700   559.91714      5101.6913      5101.6913      13632.032      13632.032     -156.29942      3985.296       3985.296       194.96535    
     13800   563.57614      4832.7649      4832.7649      14920.772      14920.772     -156.30102      3985.296       3985.296       196.89704    
     13900   567.30314      4903.9291      4903.9291     -15621.565     -15621.565     -156.32137      3985.296       3985.296       197.18329    
     14000   571.48514      5183.6844      5183.6844     -13104.28      -13104.28      -156.30121      3985.296       3985.296       196.71345    
     14100   575.05914      5182.7172      5182.7172      2666.1802      2666.1802     -156.23452      3985.296       3985.296       197.49325    
     14200   579.10114      4794.5497      4794.5497      15769.87       15769.87      -156.15062      3985.296       3985.296       200.87073    
     14300   583.16114      5892.9537      5892.9537     -12665.942     -12665.942     -156.2966       3985.296       3985.296       202.08253    
     14400   587.37714      5007.3765      5007.3765     -8471.886      -8471.886      -156.26848      3985.296       3985.296       204.6786     
     14500   591.22714      4627.3048      4627.3048     -5323.5065     -5323.5065     -156.24633      3985.296       3985.296       206.02515    
     14600   595.00515      4912.4486      4912.4486      8085.6479      8085.6479     -156.26169      3985.296       3985.296       206.21162    
     14700   599.06116      4807.6689      4807.6689      30032.971      30032.971     -156.20733      3985.296       3985.296       206.62063    
     14800   603.40315      4923.4395      4923.4395     -77.545752     -77.545752     -156.14344      3985.296       3985.296       206.91039    
     14900   607.45814      5625.5297      5625.5297      29614.639      29614.639     -156.15287      3985.296       3985.296       211.15368    
     15000   611.38114      5871.5578      5871.5578      4267.4986      4267.4986     -156.27557      3985.296       3985.296       214.94799    
     15100   615.37013      4932.5523      4932.5523      25878.408      25878.408     -156.21828      3985.296       3985.296       219.08931    
     15200   619.49714      5020.5706      5020.5706      22624.149      22624.149     -156.26682      3985.296       3985.296       221.00808    
     15300   623.71013      4852.718       4852.718       14095.87       14095.87      -156.29917      3985.296       3985.296       220.28618    
     15400   628.12114      5004.0185      5004.0185      13062.703      13062.703     -156.31971      3985.296       3985.296       221.09101    
     15500   632.49914      5260.298       5260.298       18688.918      18688.918     -156.2684       3985.296       3985.296       221.81584    
     15600   637.02913      5077.5487      5077.5487      18342.16       18342.16      -156.19151      3985.296       3985.296       222.57678    
     15700   641.14316      5197.4969      5197.4969      7400.2509      7400.2509     -156.23461      3985.296       3985.296       223.45011    
     15800   645.32513      5031.0363      5031.0363      4405.8754      4405.8754     -156.26942      3985.296       3985.296       228.91191    
     15900   649.80814      4854.7227      4854.7227      6283.5876      6283.5876     -156.26576      3985.296       3985.296       232.4755     
     16000   654.12614      5059.4117      5059.4117      24249.712      24249.712     -156.28251      3985.296       3985.296       235.1523     
     16100   658.17515      4954.7209      4954.7209      12975.533      12975.533     -156.24526      3985.296       3985.296       236.49083    
     16200   662.41814      4754.7052      4754.7052     -653.73724     -653.73724     -156.20747      3985.296       3985.296       237.66257    
     16300   667.48414      5078.4379      5078.4379      2765.5084      2765.5084     -156.20977      3985.296       3985.296       237.23147    
     16400   671.64014      5101.337       5101.337       21768.755      21768.755     -156.16288      3985.296       3985.296       237.2258     
     16500   675.64314      5418.7055      5418.7055      22016.877      22016.877     -156.2357       3985.296       3985.296       239.82874    
     16600   680.22127      5084.7224      5084.7224     -11795.244     -11795.244     -156.257        3985.296       3985.296       241.85478    
     16700   684.49214      4652.7078      4652.7078      5013.5643      5013.5643     -156.25654      3985.296       3985.296       241.09952    
     16800   688.82814      5016.7126      5016.7126      16267.615      16267.615     -156.32317      3985.296       3985.296       242.94155    
     16900   693.61427      4995.0034      4995.0034     -30778.01      -30778.01      -156.32592      3985.296       3985.296       244.10736    
     17000   698.80214      5152.506       5152.506       3929.9938      3929.9938     -156.34205      3985.296       3985.296       246.99416    
     17100   703.22813      5336.3846      5336.3846      9393.5644      9393.5644     -156.33622      3985.296       3985.296       252.84047    
     17200   707.32414      4963.8526      4963.8526      15556.608      15556.608     -156.26936      3985.296       3985.296       258.30302    
     17300   711.14916      4683.7984      4683.7984     -10739.733     -10739.733     -156.22755      3985.296       3985.296       263.4538     
     17400   715.73413      5381.9888      5381.9888      13210.217      13210.217     -156.2242       3985.296       3985.296       262.17812    
     17500   720.40415      5183.6832      5183.6832     -27411.69      -27411.69      -156.1647       3985.296       3985.296       264.47711    
     17600   724.96322      5171.0509      5171.0509     -3650.2429     -3650.2429     -156.22425      3985.296       3985.296       267.68716    
     17700   729.01816      5218.5126      5218.5126     -10037.447     -10037.447     -156.27462      3985.296       3985.296       271.74422    
     17800   733.70214      4942.5452      4942.5452      18951.24       18951.24      -156.27675      3985.296       3985.296       274.03282    
     17900   737.91414      5121.8806      5121.8806      478.28207      478.28207     -156.31045      3985.296       3985.296       274.88739    
     18000   741.65413      4731.1063      4731.1063      22277.178      22277.178     -156.29264      3985.296       3985.296       274.92841    
     18100   745.70514      4648.187       4648.187      -5300.6125     -5300.6125     -156.34349      3985.296       3985.296       276.68601    
     18200   750.08714      4477.8946      4477.8946     -19171.625     -19171.625     -156.34381      3985.296       3985.296       276.67512    
     18300   754.52213      4689.7264      4689.7264     -23145.357     -23145.357     -156.30409      3985.296       3985.296       275.49848    
     18400   758.77814      4640.5527      4640.5527      2294.997       2294.997      -156.23573      3985.296       3985.296       272.80426    
     18500   762.92614      5224.6626      5224.6626     -2357.6114     -2357.6114     -156.28468      3985.296       3985.296       276.14517    
     18600   767.19514      4943.6705      4943.6705      32627.458      32627.458     -156.26111      3985.296       3985.296       279.94383    
     18700   771.31314      4471.1215      4471.1215      1509.4251      1509.4251     -156.25076      3985.296       3985.296       281.07248    
     18800   775.47815      4304.6663      4304.6663      7428.0427      7428.0427     -156.30201      3985.296       3985.296       284.23758    
     18900   779.98214      4503.995       4503.995       12779.149      12779.149     -156.32084      3985.296       3985.296       288.78261    
     19000   783.94014      5239.2211      5239.2211     -9756.5867     -9756.5867     -156.3088       3985.296       3985.296       293.63999    
     19100   788.26014      5100.4807      5100.4807      271.62838      271.62838     -156.28013      3985.296       3985.296       295.31684    
     19200   792.40913      4966.7655      4966.7655     -1643.9335     -1643.9335     -156.27805      3985.296       3985.296       299.03253    
     19300   796.80614      5054.2226      5054.2226      15225.836      15225.836     -156.33057      3985.296       3985.296       297.33769    
     19400   800.85414      4625.5726      4625.5726     -16238.902     -16238.902     -156.33831      3985.296       3985.296       297.75461    
     19500   805.41213      4512.3743      4512.3743      13121.45       13121.45      -156.34328      3985.296       3985.296       298.71374    
     19600   810.27616      5228.2238      5228.2238      10504.907      10504.907     -156.33985      3985.296       3985.296       298.90773    
     19700   814.37313      5232.6621      5232.6621     -3477.684      -3477.684      -156.29146      3985.296       3985.296       301.76468    
     19800   818.92613      4557.5441      4557.5441      10242.816      10242.816     -156.20447      3985.296       3985.296       303.40337    
     19900   823.09814      5141.792       5141.792       18912.412      18912.412     -156.32887      3985.296       3985.296       308.2152     
     20000   827.46214      4706.6568      4706.6568      11977.04       11977.04      -156.3338       3985.296       3985.296       308.53676    
     20100   831.53114      4909.1275      4909.1275     -16803.362     -16803.362     -156.337        3985.296       3985.296       309.65658    
     20200   835.91614      5120.9746      5120.9746      6843.8818      6843.8818     -156.30258      3985.296       3985.296       310.41345    
     20300   840.56414      5337.5358      5337.5358      12287.612      12287.612     -156.29939      3985.296       3985.296       310.95951    
     20400   845.04414      4725.8825      4725.8825      2630.0249      2630.0249     -156.22099      3985.296       3985.296       312.31955    
     20500   849.51314      4790.4672      4790.4672     -7286.0534     -7286.0534     -156.24859      3985.296       3985.296       315.55343    
     20600   853.98614      4742.6371      4742.6371     -10885.744     -10885.744     -156.28376      3985.296       3985.296       314.89096    
     20700   857.95414      5016.0241      5016.0241      30948.586      30948.586     -156.34186      3985.296       3985.296       317.22912    
     20800   862.11714      5315.3289      5315.3289     -18013.899     -18013.899     -156.30359      3985.296       3985.296       318.39271    
     20900   866.44514      5367.8036      5367.8036      16633.826      16633.826     -156.25856      3985.296       3985.296       321.93662    
     21000   870.32114      5117.2883      5117.2883      6120.0141      6120.0141     -156.23357      3985.296       3985.296       323.86377    
     21100   874.21014      5284.5072      5284.5072      10497.89       10497.89      -156.3116       3985.296       3985.296       325.70165    
     21200   878.24014      4789.2285      4789.2285      14335.2        14335.2       -156.30739      3985.296       3985.296       326.02916    
     21300   882.04914      4801.5786      4801.5786     -456.9287      -456.9287      -156.30389      3985.296       3985.296       325.03272    
     21400   886.08015      5050.7985      5050.7985     -24029.564     -24029.564     -156.31938      3985.296       3985.296       323.08219    
     21500   890.16614      4778.6069      4778.6069      23585.196      23585.196     -156.28125      3985.296       3985.296       329.23706    
     21600   894.80814      4979.5455      4979.5455      404.6797       404.6797      -156.24925      3985.296       3985.296       333.60191    
     21700   899.52815      5503.2656      5503.2656     -1436.358      -1436.358      -156.25267      3985.296       3985.296       334.00323    
     21800   903.98327      5455.6388      5455.6388      28260.449      28260.449     -156.26445      3985.296       3985.296       334.73206    
     21900   908.41214      4917.9662      4917.9662      4622.2315      4622.2315     -156.28927      3985.296       3985.296       336.41832    
     22000   912.65714      4931.3925      4931.3925      2290.3814      2290.3814     -156.29828      3985.296       3985.296       337.53916    
     22100   916.70815      5196.6964      5196.6964     -4189.4117     -4189.4117     -156.31681      3985.296       3985.296       335.77574    
     22200   921.11214      5060.3148      5060.3148      30874.681      30874.681     -156.29083      3985.296       3985.296       334.87254    
     22300   925.82813      5194.8328      5194.8328      35736.126      35736.126     -156.31825      3985.296       3985.296       333.34238    
     22400   930.30014      4907.1875      4907.1875     -11111.655     -11111.655     -156.27891      3985.296       3985.296       333.65628    
     22500   934.41817      5197.9933      5197.9933     -14636.522     -14636.522     -156.28556      3985.296       3985.296       335.15027    
     22600   938.18114      5332.9715      5332.9715      11956.908      11956.908     -156.25311      3985.296       3985.296       339.53006    
     22700   941.87818      5378.8015      5378.8015      34603.971      34603.971     -156.23192      3985.296       3985.296       341.2299     
     22800   945.75514      5013.9398      5013.9398      41885.553      41885.553     -156.2241       3985.296       3985.296       343.35704    
     22900   949.60514      4716.9509      4716.9509     -11255.174     -11255.174     -156.25984      3985.296       3985.296       346.89734    
     23000   953.51914      4754.1664      4754.1664      6001.6732      6001.6732     -156.2537       3985.296       3985.296       349.88369    
     23100   957.59314      5146.6118      5146.6118      4764.3943      4764.3943     -156.2515       3985.296       3985.296       351.38449    
     23200   961.80414      5422.493       5422.493       5800.5285      5800.5285     -156.19005      3985.296       3985.296       355.86199    
     23300   965.95014      5419.9081      5419.9081     -4725.0249     -4725.0249     -156.19555      3985.296       3985.296       356.7465     
     23400   970.49714      4731.4395      4731.4395      18564.629      18564.629     -156.14829      3985.296       3985.296       357.18971    
     23500   974.82214      4710.7289      4710.7289      5647.3663      5647.3663     -156.15345      3985.296       3985.296       357.93869    
     23600   979.02415      5644.6827      5644.6827      32268.217      32268.217     -156.26559      3985.296       3985.296       360.66204    
     23700   984.06614      4761.8496      4761.8496     -8175.4361     -8175.4361     -156.22781      3985.296       3985.296       359.98555    
     23800   988.40914      4709.7145      4709.7145      9581.4504      9581.4504     -156.27072      3985.296       3985.296       363.41991    
     23900   992.50213      4651.0461      4651.0461      13797.228      13797.228     -156.24069      3985.296       3985.296       365.72824    
     24000   996.60014      5102.7157      5102.7157      7345.6525      7345.6525     -156.24305      3985.296       3985.296       373.29204    
     24100   1000.5881      4932.9387      4932.9387      2812.227       2812.227      -156.17683      3985.296       3985.296       374.92084    
     24200   1004.7181      5254.5843      5254.5843     -3612.9878     -3612.9878     -156.22666      3985.296       3985.296       379.11432    
     24300   1009.0471      5279.7738      5279.7738      9408.8502      9408.8502     -156.26903      3985.296       3985.296       383.27276    
     24400   1013.5171      4768.9586      4768.9586     -9083.6179     -9083.6179     -156.2305       3985.296       3985.296       385.70887    
     24500   1018.3421      5120.8243      5120.8243     -18933.583     -18933.583     -156.30998      3985.296       3985.296       386.53004    
     24600   1022.8631      4443.6082      4443.6082      13840.746      13840.746     -156.27128      3985.296       3985.296       390.86295    
     24700   1027.5241      4826.3367      4826.3367      11396.374      11396.374     -156.3748       3985.296       3985.296       395.58012    
     24800   1032.2621      4737.7023      4737.7023     -1136.9319     -1136.9319     -156.39013      3985.296       3985.296       399.85031    
     24900   1036.4321      4919.0599      4919.0599      15719.607      15719.607     -156.33501      3985.296       3985.296       399.622      
     25000   1041.37        5091.291       5091.291       12763.333      12763.333     -156.30372      3985.296       3985.296       398.72995    
     25100   1046.5651      4872.9752      4872.9752      9092.0029      9092.0029     -156.27181      3985.296       3985.296       401.25558    
     25200   1051.0281      5210.9191      5210.9191      25782.719      25782.719     -156.32548      3985.296       3985.296       401.34169    
     25300   1055.9371      4965.6888      4965.6888      4367.9604      4367.9604     -156.34675      3985.296       3985.296       402.06562    
     25400   1059.8851      4549.5513      4549.5513      8134.7945      8134.7945     -156.3374       3985.296       3985.296       403.2126     
     25500   1064.4181      4635.5339      4635.5339     -10423.731     -10423.731     -156.28707      3985.296       3985.296       403.81321    
     25600   1069.1891      4476.9908      4476.9908      1932.656       1932.656      -156.20057      3985.296       3985.296       404.8886     
     25700   1075.4031      5269.3433      5269.3433      22725.632      22725.632     -156.2613       3985.296       3985.296       400.89092    
     25800   1081.6111      4983.7054      4983.7054      2141.4372      2141.4372     -156.21905      3985.296       3985.296       404.81667    
     25900   1086.1421      4708.8542      4708.8542     -5294.3196     -5294.3196     -156.21471      3985.296       3985.296       405.39163    
     26000   1090.4811      4934.8848      4934.8848      6255.3018      6255.3018     -156.31711      3985.296       3985.296       400.14816    
     26100   1094.7051      4685.3332      4685.3332      18612.9        18612.9       -156.3309       3985.296       3985.296       400.82853    
     26200   1098.7231      4710.5842      4710.5842     -14595.195     -14595.195     -156.2973       3985.296       3985.296       403.13948    
     26300   1103.7421      5267.0344      5267.0344      17514.762      17514.762     -156.31774      3985.296       3985.296       403.91383    
     26400   1108.0895      5065.0776      5065.0776     -5423.6621     -5423.6621     -156.26973      3985.296       3985.296       406.42449    
     26500   1112.3951      4612.7925      4612.7925      26328.748      26328.748     -156.2101       3985.296       3985.296       408.57384    
     26600   1116.9991      4879.1125      4879.1125     -11917.192     -11917.192     -156.22958      3985.296       3985.296       412.17051    
     26700   1121.0881      5223.9414      5223.9414     -19444.315     -19444.315     -156.24568      3985.296       3985.296       414.18302    
     26800   1125.3311      5172.6588      5172.6588      15220.027      15220.027     -156.24004      3985.296       3985.296       410.82246    
     26900   1129.6221      4841.8568      4841.8568      11590.825      11590.825     -156.27027      3985.296       3985.296       412.65568    
     27000   1133.8842      4864.5233      4864.5233      4375.9795      4375.9795     -156.30969      3985.296       3985.296       412.33687    
     27100   1138.3091      5127.9162      5127.9162     -4067.7189     -4067.7189     -156.32765      3985.296       3985.296       415.50324    
     27200   1142.6821      5507.6109      5507.6109      5885.9907      5885.9907     -156.27629      3985.296       3985.296       416.63978    
     27300   1147.0941      5336.2452      5336.2452     -77.94955      -77.94955      -156.24627      3985.296       3985.296       419.98968    
     27400   1151.7861      4847.4954      4847.4954     -9832.6008     -9832.6008     -156.23198      3985.296       3985.296       421.08734    
     27500   1156.1241      4808.5009      4808.5009     -11419.377     -11419.377     -156.25162      3985.296       3985.296       422.74654    
     27600   1160.4212      5011.3417      5011.3417      10357.964      10357.964     -156.26564      3985.296       3985.296       424.56762    
     27700   1165.3371      5603.6031      5603.6031      21689.473      21689.473     -156.305        3985.296       3985.296       424.93838    
     27800   1169.9322      5633.6481      5633.6481      568.07853      568.07853     -156.22383      3985.296       3985.296       424.54272    
     27900   1174.2661      5457.5939      5457.5939     -2908.3344     -2908.3344     -156.21851      3985.296       3985.296       424.67654    
     28000   1178.8151      5234.8771      5234.8771     -5258.5702     -5258.5702     -156.29069      3985.296       3985.296       424.75509    
     28100   1182.9091      4975.3301      4975.3301      8884.753       8884.753      -156.30478      3985.296       3985.296       431.47284    
     28200   1187.6571      4704.5893      4704.5893      9126.2212      9126.2212     -156.29372      3985.296       3985.296       435.90031    
     28300   1192.4551      4826.2967      4826.2967      16683.486      16683.486     -156.27811      3985.296       3985.296       439.025      
     28400   1197.5201      5384.6351      5384.6351     -10958.747     -10958.747     -156.27248      3985.296       3985.296       438.50327    
     28500   1202.3361      5616.1429      5616.1429     -3657.6924     -3657.6924     -156.30111      3985.296       3985.296       440.59034    
     28600   1207.0372      5049.4972      5049.4972      5215.4819      5215.4819     -156.33778      3985.296       3985.296       441.03632    
     28700   1211.3451      4814.8331      4814.8331      7678.5187      7678.5187     -156.31155      3985.296       3985.296       441.31102    
     28800   1215.6971      4820.8891      4820.8891      18016.529      18016.529     -156.2704       3985.296       3985.296       443.51493    
     28900   1220.0812      4986.0406      4986.0406      2821.4036      2821.4036     -156.24372      3985.296       3985.296       447.31346    
     29000   1224.5891      5463.5742      5463.5742      7979.5791      7979.5791     -156.32489      3985.296       3985.296       452.2792     
     29100   1229.0411      4784.9676      4784.9676     -4571.3286     -4571.3286     -156.34738      3985.296       3985.296       452.62186    
     29200   1233.5951      4316.5552      4316.5552     -8405.3638     -8405.3638     -156.28109      3985.296       3985.296       450.35044    
     29300   1237.7852      5258.2279      5258.2279     -2022.3939     -2022.3939     -156.33299      3985.296       3985.296       451.49237    
     29400   1241.7231      5280.9047      5280.9047     -11701.241     -11701.241     -156.29083      3985.296       3985.296       453.7298     
     29500   1245.5652      5468.8488      5468.8488      5575.9934      5575.9934     -156.29756      3985.296       3985.296       455.97685    
     29600   1249.2681      4826.8473      4826.8473      9702.4059      9702.4059     -156.25658      3985.296       3985.296       457.03046    
     29700   1253.1813      4791.827       4791.827       11185.749      11185.749     -156.35338      3985.296       3985.296       460.70945    
     29800   1257.2311      4557.2726      4557.2726     -19604.662     -19604.662     -156.33583      3985.296       3985.296       462.50905    
     29900   1261.4601      5049.5848      5049.5848      159.16686      159.16686     -156.34297      3985.296       3985.296       462.18771    
     30000   1265.8471      4808.0021      4808.0021      12320.873      12320.873     -156.26628      3985.296       3985.296       461.37222    
     30100   1270.2951      5401.9891      5401.9891      9814.6297      9814.6297     -156.32963      3985.296       3985.296       469.62261    
     30200   1274.5011      5050.9595      5050.9595      4939.2828      4939.2828     -156.3037       3985.296       3985.296       469.49127    
     30300   1278.5571      4923.1688      4923.1688      8014.845       8014.845      -156.29915      3985.296       3985.296       472.41131    
     30400   1282.9511      4683.174       4683.174       4144.8868      4144.8868     -156.3159       3985.296       3985.296       476.53695    
     30500   1287.2461      4752.1149      4752.1149      13071.953      13071.953     -156.39813      3985.296       3985.296       478.74324    
     30600   1291.7731      4322.0682      4322.0682      2667.2141      2667.2141     -156.32223      3985.296       3985.296       482.75013    
     30700   1296.5041      4969.5462      4969.5462     -4793.9735     -4793.9735     -156.32244      3985.296       3985.296       481.7633     
     30800   1300.8961      5178.7756      5178.7756      18346.93       18346.93      -156.32059      3985.296       3985.296       481.2033     
     30900   1305.7111      4683.787       4683.787      -2682.3358     -2682.3358     -156.24603      3985.296       3985.296       483.31779    
     31000   1310.3521      5157.5851      5157.5851     -2796.0905     -2796.0905     -156.26165      3985.296       3985.296       482.50033    
     31100   1314.7622      5602.8386      5602.8386      2776.7457      2776.7457     -156.24297      3985.296       3985.296       485.74507    
     31200   1319.6781      5686.6188      5686.6188      27877.116      27877.116     -156.26966      3985.296       3985.296       490.51981    
     31300   1324.0911      5003.4925      5003.4925      12140.779      12140.779     -156.2954       3985.296       3985.296       491.72598    
     31400   1328.7061      4836.8092      4836.8092      3921.8895      3921.8895     -156.27572      3985.296       3985.296       492.82114    
     31500   1333.9711      4639.619       4639.619       19381.816      19381.816     -156.22871      3985.296       3985.296       492.37204    
     31600   1339.2791      4668.8224      4668.8224     -8296.46       -8296.46       -156.19456      3985.296       3985.296       492.38412    
     31700   1344.3961      5488.7749      5488.7749      25979.528      25979.528     -156.23511      3985.296       3985.296       492.1232     
     31800   1349.2051      5131.825       5131.825       22138.13       22138.13      -156.21653      3985.296       3985.296       493.54133    
     31900   1353.3261      4581.6592      4581.6592      17211.257      17211.257     -156.21146      3985.296       3985.296       493.38293    
     32000   1357.2201      4561.7436      4561.7436      7467.5932      7467.5932     -156.30109      3985.296       3985.296       492.41866    
     32100   1361.2101      4500.7262      4500.7262      8893.9047      8893.9047     -156.27456      3985.296       3985.296       491.39729    
     32200   1365.4421      4827.947       4827.947       9273.838       9273.838      -156.25333      3985.296       3985.296       493.27701    
     32300   1369.7081      5077.4211      5077.4211     -845.58641     -845.58641     -156.25348      3985.296       3985.296       498.80431    
     32400   1374.0011      5261.3476      5261.3476      51517.847      51517.847     -156.28619      3985.296       3985.296       496.72427    
     32500   1378.0521      4822.4445      4822.4445      23614.326      23614.326     -156.25748      3985.296       3985.296       505.20795    
     32600   1381.9561      4758.3715      4758.3715     -7125.3804     -7125.3804     -156.31121      3985.296       3985.296       510.54949    
     32700   1385.8611      4630.1532      4630.1532     -34532.76      -34532.76      -156.34957      3985.296       3985.296       510.6888     
     32800   1389.8771      4586.0628      4586.0628      6492.3446      6492.3446     -156.32481      3985.296       3985.296       508.82086    
     32900   1394.1051      5162.0826      5162.0826      20499.767      20499.767     -156.31061      3985.296       3985.296       506.27717    
     33000   1398.3041      5301.2723      5301.2723      1706.8446      1706.8446     -156.30904      3985.296       3985.296       511.66644    
     33100   1402.4131      5229.6842      5229.6842      16935.344      16935.344     -156.28779      3985.296       3985.296       512.1705     
     33200   1406.8461      5443.9805      5443.9805      18225.939      18225.939     -156.29165      3985.296       3985.296       516.21932    
     33300   1411.0711      4882.6265      4882.6265     -766.24006     -766.24006     -156.23578      3985.296       3985.296       515.66335    
     33400   1415.8251      4669.6815      4669.6815      5849.1101      5849.1101     -156.26713      3985.296       3985.296       517.77215    
     33500   1419.8981      4609.5918      4609.5918     -569.18443     -569.18443     -156.28699      3985.296       3985.296       519.92152    
     33600   1424.7371      4965.7203      4965.7203      12879.001      12879.001     -156.27863      3985.296       3985.296       519.76305    
     33700   1429.5141      5432.0048      5432.0048      7617.3888      7617.3888     -156.25944      3985.296       3985.296       523.30036    
     33800   1434.0931      5312.9158      5312.9158      24261.79       24261.79      -156.2406       3985.296       3985.296       529.76008    
     33900   1438.1891      5282.1397      5282.1397      10268.01       10268.01      -156.27326      3985.296       3985.296       533.36053    
     34000   1442.4551      4871.1405      4871.1405     -11935.867     -11935.867     -156.29403      3985.296       3985.296       536.99321    
     34100   1447.2221      4954.7971      4954.7971      906.9451       906.9451      -156.34429      3985.296       3985.296       538.34204    
     34200   1451.8061      4841.0025      4841.0025      7721.0735      7721.0735     -156.32938      3985.296       3985.296       539.76968    
     34300   1456.3711      4620.2226      4620.2226     -12039.48      -12039.48      -156.27657      3985.296       3985.296       540.11591    
     34400   1460.7381      5349.8632      5349.8632     -1593.2137     -1593.2137     -156.31855      3985.296       3985.296       537.96025    
     34500   1465.2121      4803.4715      4803.4715     -9515.3897     -9515.3897     -156.25015      3985.296       3985.296       538.90543    
     34600   1469.3461      4700.9042      4700.9042      26859.125      26859.125     -156.25074      3985.296       3985.296       544.68484    
     34700   1474.1522      5050.1086      5050.1086      14322.988      14322.988     -156.32014      3985.296       3985.296       544.02544    
     34800   1478.6262      4459.0769      4459.0769     -7345.9527     -7345.9527     -156.26335      3985.296       3985.296       550.06126    
     34900   1483.6952      5040.0274      5040.0274      3620.4534      3620.4534     -156.32187      3985.296       3985.296       551.20659    
     35000   1488.4181      5173.364       5173.364      -8073.3324     -8073.3324     -156.29663      3985.296       3985.296       551.85216    
     35100   1493.0001      5086.3508      5086.3508      10008.946      10008.946     -156.27382      3985.296       3985.296       555.3281     
     35200   1497.7171      5100.7085      5100.7085     -138.25344     -138.25344     -156.31323      3985.296       3985.296       559.16988    
     35300   1502.8851      4752.7573      4752.7573      19348.12       19348.12      -156.32007      3985.296       3985.296       561.13268    
     35400   1507.5401      4279.1096      4279.1096     -14096.014     -14096.014     -156.24735      3985.296       3985.296       563.20908    
     35500   1511.7901      5393.1979      5393.1979      34893.22       34893.22      -156.29844      3985.296       3985.296       559.14587    
     35600   1516.3001      5198.8476      5198.8476     -12769.739     -12769.739     -156.26869      3985.296       3985.296       561.54969    
     35700   1520.7901      4696.1296      4696.1296     -4189.6491     -4189.6491     -156.27046      3985.296       3985.296       564.99964    
     35800   1525.8521      5269.9941      5269.9941     -8466.9522     -8466.9522     -156.39427      3985.296       3985.296       569.32796    
     35900   1530.7281      4598.7815      4598.7815     -17318.47      -17318.47      -156.31663      3985.296       3985.296       573.16477    
     36000   1535.7671      5161.3246      5161.3246     -11158.918     -11158.918     -156.33515      3985.296       3985.296       571.83199    
     36100   1540.5541      5707.4928      5707.4928      442.8762       442.8762      -156.36639      3985.296       3985.296       569.55174    
     36200   1544.8371      5230.5617      5230.5617      19984.9        19984.9       -156.32287      3985.296       3985.296       573.36252    
     36300   1549.5331      4852.1937      4852.1937      9296.9722      9296.9722     -156.31254      3985.296       3985.296       580.56478    
     36400   1554.1671      4731.0048      4731.0048     -13911.892     -13911.892     -156.30195      3985.296       3985.296       581.45282    
     36500   1558.4221      4963.5669      4963.5669      11855.426      11855.426     -156.29677      3985.296       3985.296       583.79863    
     36600   1562.9291      4958.2118      4958.2118     -7638.1256     -7638.1256     -156.18547      3985.296       3985.296       588.87766    
     36700   1568.0001      5354.8339      5354.8339     -540.29278     -540.29278     -156.20769      3985.296       3985.296       590.54392    
     36800   1572.8561      5432.1075      5432.1075      36224.599      36224.599     -156.25935      3985.296       3985.296       590.84831    
     36900   1577.7591      5036.7655      5036.7655      20928.69       20928.69      -156.25528      3985.296       3985.296       590.63858    
     37000   1582.0341      4773.105       4773.105       3373.7845      3373.7845     -156.25011      3985.296       3985.296       596.95844    
     37100   1586.3961      5001.9535      5001.9535     -6131.2244     -6131.2244     -156.24186      3985.296       3985.296       602.33388    
     37200   1590.6151      5141.4072      5141.4072      23575.367      23575.367     -156.14273      3985.296       3985.296       603.97326    
     37300   1594.9851      5292.2215      5292.2215      9692.1099      9692.1099     -156.18782      3985.296       3985.296       606.51372    
     37400   1599.1011      5109.5251      5109.5251      24464.058      24464.058     -156.22398      3985.296       3985.296       607.48386    
     37500   1603.2881      4824.0849      4824.0849      15199.538      15199.538     -156.21211      3985.296       3985.296       613.0788     
     37600   1608.4171      4928.5954      4928.5954      20134.155      20134.155     -156.24216      3985.296       3985.296       618.16927    
     37700   1612.7571      5035.1277      5035.1277      2704.7946      2704.7946     -156.31913      3985.296       3985.296       621.2602     
     37800   1616.7251      4548.093       4548.093       8937.403       8937.403      -156.29964      3985.296       3985.296       622.76352    
     37900   1620.6441      4721.3203      4721.3203      11545.993      11545.993     -156.2639       3985.296       3985.296       614.47237    
     38000   1624.6301      5254.5551      5254.5551      5308.8102      5308.8102     -156.27453      3985.296       3985.296       613.11279    
     38100   1629.0671      5185.1988      5185.1988      28736.548      28736.548     -156.27083      3985.296       3985.296       615.36437    
     38200   1633.1202      5148.5301      5148.5301      21898.375      21898.375     -156.29927      3985.296       3985.296       617.86643    
     38300   1637.3481      4702.4329      4702.4329      20785.001      20785.001     -156.28324      3985.296       3985.296       613.47355    
     38400   1641.4411      5287.3667      5287.3667      9307.4483      9307.4483     -156.37952      3985.296       3985.296       613.57909    
     38500   1645.6091      4517.8283      4517.8283     -2847.7988     -2847.7988     -156.35919      3985.296       3985.296       608.52647    
     38600   1649.7391      4589.3203      4589.3203     -25038.463     -25038.463     -156.38182      3985.296       3985.296       607.07441    
     38700   1653.9481      4990.1692      4990.1692      8073.7084      8073.7084     -156.34952      3985.296       3985.296       604.37394    
     38800   1658.2101      4951.4707      4951.4707      4454.4473      4454.4473     -156.28869      3985.296       3985.296       604.28095    
     38900   1663.2772      4998.739       4998.739      -5412.752      -5412.752      -156.27745      3985.296       3985.296       603.06112    
     39000   1667.9152      5091.721       5091.721       4440.8702      4440.8702     -156.25078      3985.296       3985.296       604.2836     
     39100   1672.0891      5117.6181      5117.6181     -6827.8899     -6827.8899     -156.18634      3985.296       3985.296       605.75826    
     39200   1676.5391      5353.2278      5353.2278     -1467.4598     -1467.4598     -156.1744       3985.296       3985.296       613.22706    
     39300   1680.9202      5228.4346      5228.4346      14558.475      14558.475     -156.266        3985.296       3985.296       617.88182    
     39400   1685.1943      5113.2506      5113.2506     -5152.6385     -5152.6385     -156.30111      3985.296       3985.296       617.61374    
     39500   1688.6811      5215.7515      5215.7515     -10079.361     -10079.361     -156.32601      3985.296       3985.296       618.76693    
     39600   1692.3051      4607.5622      4607.5622      4069.245       4069.245      -156.25237      3985.296       3985.296       625.09382    
     39700   1696.2081      4925.5944      4925.5944     -17286.697     -17286.697     -156.2631       3985.296       3985.296       630.41594    
     39800   1699.8001      5529.5913      5529.5913      13273.64       13273.64      -156.26095      3985.296       3985.296       634.70413    
     39900   1703.6991      5726.3417      5726.3417      48165.539      48165.539     -156.26678      3985.296       3985.296       634.8509     
     40000   1707.8241      5080.4564      5080.4564      603.35828      603.35828     -156.24395      3985.296       3985.296       638.44103    
     40100   1711.4751      5024.9534      5024.9534      9163.665       9163.665      -156.30168      3985.296       3985.296       642.13552    
     40200   1715.4491      4838.5502      4838.5502      21696.5        21696.5       -156.27741      3985.296       3985.296       646.7922     
     40300   1719.8561      5081.1388      5081.1388     -6982.7398     -6982.7398     -156.32429      3985.296       3985.296       651.15991    
     40400   1724.1301      4745.0168      4745.0168      29953.13       29953.13      -156.27588      3985.296       3985.296       644.44733    
     40500   1728.1282      4977.7422      4977.7422     -4383.6273     -4383.6273     -156.23495      3985.296       3985.296       645.67874    
     40600   1731.8091      5756.4651      5756.4651      11543.581      11543.581     -156.27373      3985.296       3985.296       652.26439    
     40700   1736.1081      5605.5371      5605.5371     -4742.4011     -4742.4011     -156.26958      3985.296       3985.296       654.99739    
     40800   1740.5031      4582.7386      4582.7386     -667.12856     -667.12856     -156.25267      3985.296       3985.296       654.50854    
     40900   1744.8011      4836.6587      4836.6587      814.85692      814.85692     -156.28056      3985.296       3985.296       658.23891    
     41000   1748.6451      4825.1613      4825.1613     -1644.3049     -1644.3049     -156.25732      3985.296       3985.296       662.83602    
     41100   1752.4092      5093.976       5093.976       3945.8935      3945.8935     -156.27988      3985.296       3985.296       660.06899    
     41200   1756.4952      4619.5706      4619.5706      339.79214      339.79214     -156.23402      3985.296       3985.296       662.80239    
     41300   1760.3381      5193.5411      5193.5411      6884.034       6884.034      -156.31511      3985.296       3985.296       665.81585    
     41400   1764.0501      4979.9443      4979.9443      6932.5094      6932.5094     -156.30935      3985.296       3985.296       670.88747    
     41500   1768.0921      4981.8121      4981.8121     -20513.997     -20513.997     -156.30172      3985.296       3985.296       675.45723    
     41600   1771.8462      5244.5361      5244.5361     -18471.008     -18471.008     -156.25984      3985.296       3985.296       670.76397    
     41700   1775.4451      4934.7223      4934.7223      2622.0042      2622.0042     -156.17684      3985.296       3985.296       673.07596    
     41800   1779.2021      5049.2703      5049.2703      26276.473      26276.473     -156.20824      3985.296       3985.296       673.50163    
     41900   1782.8391      4941.5068      4941.5068      6311.2084      6311.2084     -156.223        3985.296       3985.296       672.87509    
     42000   1786.7701      4675.9581      4675.9581     -1078.9253     -1078.9253     -156.28507      3985.296       3985.296       670.73649    
     42100   1790.2831      4784.6409      4784.6409      26379.514      26379.514     -156.32048      3985.296       3985.296       666.87624    
     42200   1794.5251      5011.2946      5011.2946      9013.6396      9013.6396     -156.29061      3985.296       3985.296       669.89056    
     42300   1799.0671      5153.6412      5153.6412      18323.854      18323.854     -156.25318      3985.296       3985.296       676.67789    
     42400   1803.2401      4809.6322      4809.6322     -5173.6645     -5173.6645     -156.21645      3985.296       3985.296       680.43187    
     42500   1806.7331      5202.5082      5202.5082      2338.7159      2338.7159     -156.26659      3985.296       3985.296       686.08964    
     42600   1810.2571      5166.1796      5166.1796      1325.8905      1325.8905     -156.24147      3985.296       3985.296       683.7945     
     42700   1814.4171      5310.1079      5310.1079     -2006.2273     -2006.2273     -156.16773      3985.296       3985.296       684.10864    
     42800   1818.2951      5269.162       5269.162       24055.842      24055.842     -156.1562       3985.296       3985.296       686.73038    
     42900   1821.7451      5080.1545      5080.1545      1465.4331      1465.4331     -156.22591      3985.296       3985.296       686.70863    
     43000   1825.2692      5073.1467      5073.1467      1962.777       1962.777      -156.25391      3985.296       3985.296       693.30923    
     43100   1829.4041      4975.6376      4975.6376      10771.42       10771.42      -156.27714      3985.296       3985.296       696.03991    
     43200   1833.4134      4740.0763      4740.0763      9843.6598      9843.6598     -156.26631      3985.296       3985.296       700.06831    
     43300   1838.1921      5492.2677      5492.2677      10233.895      10233.895     -156.31322      3985.296       3985.296       703.16401    
     43400   1842.6172      5185.6938      5185.6938     -4709.0005     -4709.0005     -156.23044      3985.296       3985.296       712.69893    
     43500   1846.6801      5248.6726      5248.6726      32341.788      32341.788     -156.27107      3985.296       3985.296       719.11264    
     43600   1851.1092      4705.9092      4705.9092     -19987.71      -19987.71      -156.28168      3985.296       3985.296       717.69021    
     43700   1855.1681      4976.4769      4976.4769     -9142.6879     -9142.6879     -156.33942      3985.296       3985.296       721.30776    
     43800   1859.8091      4569.7543      4569.7543      22336.113      22336.113     -156.26678      3985.296       3985.296       722.72292    
     43900   1863.6583      5134.5501      5134.5501      526.13295      526.13295     -156.21992      3985.296       3985.296       734.86901    
     44000   1867.6871      5197.6181      5197.6181      3961.1774      3961.1774     -156.20995      3985.296       3985.296       738.13945    
     44100   1871.5541      5061.7554      5061.7554      26997.123      26997.123     -156.22619      3985.296       3985.296       738.76704    
     44200   1875.3831      4772.4371      4772.4371      17316.291      17316.291     -156.25293      3985.296       3985.296       735.90262    
     44300   1878.9311      4776.4588      4776.4588     -6577.4408     -6577.4408     -156.28005      3985.296       3985.296       739.42497    
     44400   1882.5051      5002.4336      5002.4336      12055.259      12055.259     -156.2852       3985.296       3985.296       747.14531    
     44500   1886.0831      5458.5379      5458.5379      36625.617      36625.617     -156.2287       3985.296       3985.296       750.26662    
     44600   1890.0822      4889.0682      4889.0682     -11465.796     -11465.796     -156.1316       3985.296       3985.296       751.90655    
     44700   1893.9561      4876.2833      4876.2833     -7790.9076     -7790.9076     -156.1685       3985.296       3985.296       750.21449    
     44800   1897.5201      4913.3499      4913.3499     -10203.747     -10203.747     -156.23345      3985.296       3985.296       749.39142    
     44900   1901.1461      4823.6592      4823.6592     -3514.9022     -3514.9022     -156.26782      3985.296       3985.296       753.35673    
     45000   1904.5961      4823.402       4823.402      -1395.6161     -1395.6161     -156.31576      3985.296       3985.296       754.99093    
     45100   1908.4721      4298.9983      4298.9983      5682.5462      5682.5462     -156.35708      3985.296       3985.296       749.77749    
     45200   1912.0251      4701.0851      4701.0851      8204.8677      8204.8677     -156.37012      3985.296       3985.296       746.30089    
     45300   1915.4861      4880.2409      4880.2409      2761.2317      2761.2317     -156.30984      3985.296       3985.296       750.92229    
     45400   1919.0151      5112.4188      5112.4188      19888.683      19888.683     -156.2872       3985.296       3985.296       757.23482    
     45500   1922.8271      5211.6638      5211.6638      32265.203      32265.203     -156.24641      3985.296       3985.296       754.65168    
     45600   1926.8872      4973.6563      4973.6563      14633.403      14633.403     -156.20599      3985.296       3985.296       758.21699    
     45700   1930.7371      5245.9936      5245.9936      1907.6122      1907.6122     -156.26592      3985.296       3985.296       758.65915    
     45800   1934.2291      4858.3201      4858.3201      565.13826      565.13826     -156.31799      3985.296       3985.296       756.87591    
     45900   1937.6461      4792.0397      4792.0397      25099.267      25099.267     -156.31739      3985.296       3985.296       758.95378    
     46000   1941.2451      4626.432       4626.432      -25204.073     -25204.073     -156.2355       3985.296       3985.296       758.28301    
     46100   1944.7611      4887.0357      4887.0357     -9629.4502     -9629.4502     -156.22234      3985.296       3985.296       761.51681    
     46200   1948.3861      4821.9175      4821.9175      4732.2392      4732.2392     -156.19728      3985.296       3985.296       768.17768    
     46300   1952.3931      4859.3505      4859.3505     -9939.7627     -9939.7627     -156.21374      3985.296       3985.296       772.53212    
     46400   1956.2021      5029.5588      5029.5588     -14537.947     -14537.947     -156.24706      3985.296       3985.296       775.48822    
     46500   1959.9281      4944.538       4944.538      -8636.129      -8636.129      -156.33963      3985.296       3985.296       785.69023    
     46600   1963.6743      4548.0133      4548.0133      5051.1634      5051.1634     -156.3109       3985.296       3985.296       788.89063    
     46700   1967.5371      4816.7397      4816.7397     -2696.5218     -2696.5218     -156.30655      3985.296       3985.296       793.89068    
     46800   1971.7341      5372.035       5372.035       17793.708      17793.708     -156.331        3985.296       3985.296       797.75228    
     46900   1975.9642      5205.9646      5205.9646     -4097.895      -4097.895      -156.31135      3985.296       3985.296       797.2044     
     47000   1980.2551      4899.5459      4899.5459     -711.26204     -711.26204     -156.35077      3985.296       3985.296       800.36089    
     47100   1984.5532      4378.92        4378.92        26979.468      26979.468     -156.33429      3985.296       3985.296       805.0418     
     47200   1988.8501      5025.7573      5025.7573      29704.519      29704.519     -156.37096      3985.296       3985.296       803.88029    
     47300   1992.7551      5155.255       5155.255       41876.476      41876.476     -156.34736      3985.296       3985.296       798.9904     
     47400   1996.7751      5353.7025      5353.7025      9580.8401      9580.8401     -156.36397      3985.296       3985.296       796.58326    
     47500   2000.8082      4521.6121      4521.6121     -1192.1989     -1192.1989     -156.26122      3985.296       3985.296       798.71771    
     47600   2004.7192      4734.3084      4734.3084     -4030.7635     -4030.7635     -156.22011      3985.296       3985.296       803.57431    
     47700   2008.3501      5541.0169      5541.0169      32586.182      32586.182     -156.23954      3985.296       3985.296       810.58544    
     47800   2012.0441      4893.6094      4893.6094     -5289.8235     -5289.8235     -156.22128      3985.296       3985.296       809.45098    
     47900   2015.9161      5113.7813      5113.7813     -10966.406     -10966.406     -156.30053      3985.296       3985.296       815.39724    
     48000   2020.1251      4584.1695      4584.1695     -13237.832     -13237.832     -156.2553       3985.296       3985.296       816.34155    
     48100   2024.3381      4950.6288      4950.6288     -2210.6112     -2210.6112     -156.28279      3985.296       3985.296       813.4178     
     48200   2028.4041      5465.762       5465.762       12346.828      12346.828     -156.2735       3985.296       3985.296       818.63984    
     48300   2032.4551      5501.5193      5501.5193      58485.045      58485.045     -156.23888      3985.296       3985.296       816.16882    
     48400   2036.3011      4601.2165      4601.2165     -945.00275     -945.00275     -156.19677      3985.296       3985.296       815.1118     
     48500   2040.2331      4844.2065      4844.2065      36467.01       36467.01      -156.24328      3985.296       3985.296       812.11595    
     48600   2044.0982      4804.4951      4804.4951     -2786.5491     -2786.5491     -156.21608      3985.296       3985.296       810.34682    
     48700   2047.9559      5072.0568      5072.0568     -3321.6109     -3321.6109     -156.26898      3985.296       3985.296       811.04472    
     48800   2052.1791      4836.7314      4836.7314      4700.0593      4700.0593     -156.26715      3985.296       3985.296       814.16617    
     48900   2056.4512      4716.5197      4716.5197      16349.346      16349.346     -156.23566      3985.296       3985.296       815.86281    
     49000   2060.5901      5369.305       5369.305       4952.1601      4952.1601     -156.21429      3985.296       3985.296       814.19635    
     49100   2064.7061      5638.5688      5638.5688      23320.259      23320.259     -156.20053      3985.296       3985.296       820.0319     
     49200   2068.9532      5184.5116      5184.5116      6590.2761      6590.2761     -156.22233      3985.296       3985.296       826.54982    
     49300   2073.3162      4627.6068      4627.6068      17718.627      17718.627     -156.20614      3985.296       3985.296       831.28741    
     49400   2077.4081      5164.6939      5164.6939      34350.519      34350.519     -156.30874      3985.296       3985.296       840.3809     
     49500   2081.8531      5038.3532      5038.3532     -8262.4878     -8262.4878     -156.34808      3985.296       3985.296       841.12811    
     49600   2086.2382      4509.9593      4509.9593      12215.249      12215.249     -156.32602      3985.296       3985.296       839.91435    
     49700   2090.6122      4370.2936      4370.2936     -14102.698     -14102.698     -156.32401      3985.296       3985.296       835.95418    
     49800   2095.1163      4541.2082      4541.2082     -23056.317     -23056.317     -156.27645      3985.296       3985.296       843.16721    
     49900   2099.5731      5275.6809      5275.6809      30905.734      30905.734     -156.29142      3985.296       3985.296       849.84501    
     50000   2103.3651      5311.8722      5311.8722      29233.047      29233.047     -156.24653      3985.296       3985.296       851.05984    
Loop time of 2103.37 on 128 procs for 50000 steps with 200 atoms

Performance: 2.054 ns/day, 11.685 hours/ns, 23.771 timesteps/s
61.0% CPU use with 128 MPI tasks x 1 OpenMP threads

MPI task timing breakdown:
Section |  min time  |  avg time  |  max time  |%varavg| %total
---------------------------------------------------------------
Pair    | 628.74     | 878.8      | 1166.5     | 444.3 | 41.78
Neigh   | 0.045958   | 0.067615   | 0.090514   |   3.7 |  0.00
Comm    | 855.92     | 1103.6     | 1312.9     | 314.3 | 52.47
Output  | 13.849     | 13.856     | 13.906     |   0.1 |  0.66
Modify  | 45.288     | 105.69     | 216.99     | 335.3 |  5.02
Other   |            | 1.32       |            |       |  0.06

Nlocal:         1.5625 ave           5 max           0 min
Histogram: 47 0 22 0 22 0 19 0 13 5
Nghost:        156.211 ave         168 max         131 min
Histogram: 1 2 3 3 17 20 20 18 20 24
Neighs:              0 ave           0 max           0 min
Histogram: 128 0 0 0 0 0 0 0 0 0
FullNghs:      65.8281 ave         233 max           0 min
Histogram: 47 19 6 14 11 10 9 2 4 6

Total # of neighbors = 8426
Ave neighs/atom = 42.13
Neighbor list builds = 2935
Dangerous builds = 0
unfix integrate

# Phase 2:
fix integrate all nvt temp 5000 3000 0.1
run 50000
WARNING: Proc sub-domain size < neighbor skin, could lead to lost atoms (src/domain.cpp:970)
Per MPI rank memory allocation (min/avg/max) = 4.341 | 4.342 | 4.342 Mbytes
   Step          CPU            Temp        f_TempAve        Press        f_PressAve    f_PEAve_Atom      Volume         f_vAve        c_MSD[4]   
     50000   0              5311.8722      5311.8722      29233.047      29233.047     -156.24653      3985.296       3985.296       851.05984    
     50100   4.2538667      5236.0802      5236.0802      18521.031      18521.031     -156.25988      3985.296       3985.296       849.71592    
     50200   8.4668528      4727.8659      4727.8659      4549.2577      4549.2577     -156.27838      3985.296       3985.296       851.1354     
     50300   12.999854      4954.9318      4954.9318      19285.586      19285.586     -156.34603      3985.296       3985.296       849.72877    
     50400   17.243857      4815.461       4815.461      -4562.2448     -4562.2448     -156.32001      3985.296       3985.296       845.61818    
     50500   21.456858      4866.5493      4866.5493      379.57032      379.57032     -156.30301      3985.296       3985.296       850.65134    
[...]
     85800   1682.0148      3774.4953      3774.4953     -12755.506     -12755.506     -157.30436      3985.296       3985.296       1166.0603    
     85900   1687.3639      3909.0905      3909.0905      18957.622      18957.622     -157.30828      3985.296       3985.296       1167.1048    
     86000   1692.6439      3504.8628      3504.8628     -8254.3532     -8254.3532     -157.28685      3985.296       3985.296       1163.7544    
     86100   1698.0418      3796.1704      3796.1704     -20428.071     -20428.071     -157.34241      3985.296       3985.296       1160.9703    
     86200   1703.1089      3313.1533      3313.1533     -6035.7135     -6035.7135     -157.29599      3985.296       3985.296       1161.8999    
     86300   1708.4486      3212.7667      3212.7667     -11155.614     -11155.614     -157.30136      3985.296       3985.296       1161.3613    
     86400   1713.9529      3601.1707      3601.1707     -8593.6009     -8593.6009     -157.34896      3985.296       3985.296       1159.7019    
     86500   1719.5439      3631.5537      3631.5537     -18249.665     -18249.665     -157.33773      3985.296       3985.296       1162.1353    
     86600   1724.9949      3813.5881      3813.5881      29485.258      29485.258     -157.32106      3985.296       3985.296       1162.6036    
     86700   1730.427       3797.1709      3797.1709     -18321.07      -18321.07      -157.30527      3985.296       3985.296       1157.4059    
     86800   1736.0389      3363.5066      3363.5066      3440.9761      3440.9761     -157.29155      3985.296       3985.296       1158.6367    
     86900   1741.2989      3314.5628      3314.5628     -10298.772     -10298.772     -157.3346       3985.296       3985.296       1158.6656    
     87000   1746.7359      3218.8359      3218.8359     -22231.912     -22231.912     -157.33164      3985.296       3985.296       1157.1116    
     87100   1752.1349      3539.3738      3539.3738      7758.1167      7758.1167     -157.36184      3985.296       3985.296       1154.5504    
     87200   1757.4589      3206.6302      3206.6302      2321.538       2321.538      -157.29257      3985.296       3985.296       1156.0143    
     87300   1762.9209      3810.7059      3810.7059      4454.2852      4454.2852     -157.2715       3985.296       3985.296       1156.0188    
     87400   1768.1539      3769.9586      3769.9586     -34376.611     -34376.611     -157.27607      3985.296       3985.296       1154.2512    
     87500   1773.8869      3800.2418      3800.2418     -165.45513     -165.45513     -157.34128      3985.296       3985.296       1152.9978    
     87600   1779.2699      3458.7431      3458.7431      6599.2273      6599.2273     -157.33577      3985.296       3985.296       1152.7047    
     87700   1784.4769      3352.3531      3352.3531     -8099.5976     -8099.5976     -157.33393      3985.296       3985.296       1156.0338    
     87800   1789.9859      3546.6767      3546.6767     -6612.124      -6612.124      -157.34605      3985.296       3985.296       1152.9897    
     87900   1795.3519      3570.6404      3570.6404      390.3552       390.3552      -157.29861      3985.296       3985.296       1156.3894    
     88000   1800.8029      3688.6452      3688.6452     -23778.25      -23778.25      -157.28701      3985.296       3985.296       1156.079     
     88100   1806.1729      3588.6525      3588.6525      23014.108      23014.108     -157.32994      3985.296       3985.296       1158.093     
     88200   1811.4649      3772.3301      3772.3301     -4853.1668     -4853.1668     -157.39564      3985.296       3985.296       1155.7708    
     88300   1816.5738      3602.6615      3602.6615     -207.74624     -207.74624     -157.38247      3985.296       3985.296       1155.0804    
     88400   1822.0608      3405.6726      3405.6726     -4191.0861     -4191.0861     -157.33637      3985.296       3985.296       1154.5847    
     88500   1827.2448      3576.6332      3576.6332     -15351.054     -15351.054     -157.30965      3985.296       3985.296       1154.3081    
     88600   1832.8679      3764.5163      3764.5163     -22479.913     -22479.913     -157.33118      3985.296       3985.296       1157.0569    
     88700   1838.2799      3641.3996      3641.3996     -2246.2268     -2246.2268     -157.40013      3985.296       3985.296       1157.527     
     88800   1843.9649      3394.8808      3394.8808      1504.9315      1504.9315     -157.3976       3985.296       3985.296       1162.2217    
     88900   1849.3169      3500.4831      3500.4831     -7961.2915     -7961.2915     -157.41975      3985.296       3985.296       1159.6051    
     89000   1854.7469      3446.03        3446.03       -7051.3751     -7051.3751     -157.40995      3985.296       3985.296       1160.9344    
     89100   1859.8769      3548.4783      3548.4783     -28043.144     -28043.144     -157.37812      3985.296       3985.296       1160.9744    
     89200   1865.1049      3449.8134      3449.8134     -2564.5083     -2564.5083     -157.3283       3985.296       3985.296       1161.9916    
     89300   1870.4979      3444.5133      3444.5133     -27959.562     -27959.562     -157.33689      3985.296       3985.296       1161.3556    
     89400   1875.8789      3239.8026      3239.8026     -19768.869     -19768.869     -157.37243      3985.296       3985.296       1159.2141    
     89500   1881.2458      3193.5761      3193.5761      2212.0117      2212.0117     -157.39568      3985.296       3985.296       1157.829     
     89600   1886.9149      3635.3559      3635.3559     -6328.9948     -6328.9948     -157.44054      3985.296       3985.296       1159.1798    
     89700   1892.3569      3437.2382      3437.2382     -6272.3186     -6272.3186     -157.38732      3985.296       3985.296       1160.6555    
     89800   1897.7329      3460.3687      3460.3687     -4204.8761     -4204.8761     -157.35899      3985.296       3985.296       1159.293     
     89900   1902.9739      3562.4936      3562.4936     -2243.0485     -2243.0485     -157.37506      3985.296       3985.296       1163.0267    
     90000   1908.2639      3419.6435      3419.6435     -15983.986     -15983.986     -157.43074      3985.296       3985.296       1162.3337    
     90100   1913.6169      3345.3815      3345.3815     -11702.779     -11702.779     -157.44294      3985.296       3985.296       1162.0053    
     90200   1918.9869      3384.7125      3384.7125      4895.1549      4895.1549     -157.43166      3985.296       3985.296       1160.1667    
     90300   1924.0969      3582.3639      3582.3639     -26454.246     -26454.246     -157.41759      3985.296       3985.296       1161.1687    
     90400   1929.1349      3481.575       3481.575      -19053.396     -19053.396     -157.3532       3985.296       3985.296       1158.6895    
     90500   1934.2218      3540.3983      3540.3983      8611.8343      8611.8343     -157.35932      3985.296       3985.296       1157.6611    
     90600   1939.6549      3484.8935      3484.8935     -13482.459     -13482.459     -157.44191      3985.296       3985.296       1160.1982    
     90700   1944.8049      3276.4443      3276.4443     -5501.7457     -5501.7457     -157.43085      3985.296       3985.296       1161.3466    
     90800   1949.9569      3258.3644      3258.3644     -16713.24      -16713.24      -157.40366      3985.296       3985.296       1157.7406    
     90900   1955.3389      3501.4019      3501.4019      12645.874      12645.874     -157.3904       3985.296       3985.296       1156.7209    
     91000   1960.4929      3728.3299      3728.3299     -14869.067     -14869.067     -157.40004      3985.296       3985.296       1156.9508    
     91100   1965.5179      3431.4345      3431.4345     -21467.064     -21467.064     -157.38688      3985.296       3985.296       1158.6257    
     91200   1970.754       3220.5148      3220.5148      2008.1553      2008.1553     -157.43147      3985.296       3985.296       1159.9503    
     91300   1976.0539      3203.3413      3203.3413     -14256.695     -14256.695     -157.43821      3985.296       3985.296       1161.3178    
     91400   1981.3899      3266.4855      3266.4855     -35606.427     -35606.427     -157.42183      3985.296       3985.296       1159.1269    
     91500   1987.005       3425.2624      3425.2624     -14935.502     -14935.502     -157.40088      3985.296       3985.296       1160.5742    
     91600   1992.2559      3508.3168      3508.3168     -11351.821     -11351.821     -157.39825      3985.296       3985.296       1162.0595    
     91700   1997.4009      3203.0336      3203.0336      6106.0656      6106.0656     -157.39843      3985.296       3985.296       1161.7363    
     91800   2002.5979      3257.3497      3257.3497     -3486.5184     -3486.5184     -157.46823      3985.296       3985.296       1164.0342    
     91900   2007.7028      3463.8246      3463.8246      5593.3161      5593.3161     -157.48802      3985.296       3985.296       1162.65      
     92000   2012.8979      3224.432       3224.432      -23069.403     -23069.403     -157.42395      3985.296       3985.296       1162.6658    
     92100   2018.2379      3253.7846      3253.7846     -3475.5651     -3475.5651     -157.38833      3985.296       3985.296       1161.5288    
     92200   2023.6349      3436.7636      3436.7636     -28496.353     -28496.353     -157.40857      3985.296       3985.296       1160.5549    
     92300   2029.0609      3284.5203      3284.5203     -12157.979     -12157.979     -157.43809      3985.296       3985.296       1161.9923    
     92400   2034.1989      3145.2794      3145.2794      8673.3725      8673.3725     -157.45585      3985.296       3985.296       1164.2675    
     92500   2039.3369      2994.4096      2994.4096     -41294.078     -41294.078     -157.41819      3985.296       3985.296       1166.6263    
     92600   2044.3409      3435.131       3435.131       6217.6978      6217.6978     -157.43907      3985.296       3985.296       1164.4104    
     92700   2049.7949      3545.4931      3545.4931     -540.01123     -540.01123     -157.43405      3985.296       3985.296       1163.8919    
     92800   2055.0669      3389.4932      3389.4932     -1291.1673     -1291.1673     -157.4216       3985.296       3985.296       1164.3987    
     92900   2060.1309      3409.2747      3409.2747     -13658.097     -13658.097     -157.48612      3985.296       3985.296       1161.4209    
     93000   2065.1349      3180.8963      3180.8963      4371.2262      4371.2262     -157.47361      3985.296       3985.296       1164.8472    
     93100   2070.3289      3176.0825      3176.0825     -21732.061     -21732.061     -157.44998      3985.296       3985.296       1168.5527    
     93200   2075.6089      3395.6269      3395.6269      10831.015      10831.015     -157.42952      3985.296       3985.296       1166.2622    
     93300   2081.1959      3350.9344      3350.9344     -4320.9083     -4320.9083     -157.4118       3985.296       3985.296       1164.001     
     93400   2086.5609      3363.0069      3363.0069     -3496.3935     -3496.3935     -157.42472      3985.296       3985.296       1166.7709    
     93500   2091.6869      3467.4623      3467.4623      4005.1515      4005.1515     -157.45899      3985.296       3985.296       1165.7849    
     93600   2096.8639      3171.845       3171.845      -14160.321     -14160.321     -157.47021      3985.296       3985.296       1166.1275    
     93700   2102.3449      3367.308       3367.308       889.5781       889.5781      -157.52306      3985.296       3985.296       1166.0187    
     93800   2107.5719      3383.9965      3383.9965      5767.472       5767.472      -157.47745      3985.296       3985.296       1165.4805    
     93900   2112.7029      3245.2627      3245.2627     -22247.878     -22247.878     -157.40788      3985.296       3985.296       1165.8975    
     94000   2117.8059      3383.2127      3383.2127     -17779.157     -17779.157     -157.42556      3985.296       3985.296       1161.8482    
     94100   2122.6999      3152.3075      3152.3075     -13990.577     -13990.577     -157.4293       3985.296       3985.296       1163.0115    
     94200   2127.7649      3104.262       3104.262      -8642.2485     -8642.2485     -157.45309      3985.296       3985.296       1164.3686    
     94300   2133.1869      2903.6327      2903.6327      992.81907      992.81907     -157.4328       3985.296       3985.296       1162.243     
     94400   2138.1709      3240.906       3240.906      -13426.052     -13426.052     -157.42726      3985.296       3985.296       1165.4141    
     94500   2142.8709      3354.2326      3354.2326     -28961.436     -28961.436     -157.40305      3985.296       3985.296       1161.0181    
     94600   2147.8149      3418.8058      3418.8058     -8694.0758     -8694.0758     -157.43792      3985.296       3985.296       1157.2907    
     94700   2152.7259      3058.21        3058.21       -10774.004     -10774.004     -157.4284       3985.296       3985.296       1155.323     
     94800   2157.7139      3155.1463      3155.1463     -36561.701     -36561.701     -157.45344      3985.296       3985.296       1157.0979    
     94900   2162.7379      3130.3989      3130.3989     -7155.8998     -7155.8998     -157.44355      3985.296       3985.296       1157.547     
     95000   2167.6589      3186.2129      3186.2129     -2753.2122     -2753.2122     -157.44956      3985.296       3985.296       1155.461     
     95100   2172.6989      3105.5395      3105.5395     -12648.601     -12648.601     -157.44629      3985.296       3985.296       1157.6715    
     95200   2177.6699      3331.9078      3331.9078     -3644.3226     -3644.3226     -157.47321      3985.296       3985.296       1154.5209    
     95300   2182.3389      3207.3475      3207.3475     -1711.8119     -1711.8119     -157.45985      3985.296       3985.296       1156.1217    
     95400   2187.2699      3553.4241      3553.4241     -12937.896     -12937.896     -157.50425      3985.296       3985.296       1156.5432    
     95500   2192.0859      2862.667       2862.667      -5424.0448     -5424.0448     -157.40792      3985.296       3985.296       1155.4418    
     95600   2197.0459      3422.7099      3422.7099     -8606.3412     -8606.3412     -157.45994      3985.296       3985.296       1152.1381    
     95700   2202.3919      3124.995       3124.995      -22301.88      -22301.88      -157.42242      3985.296       3985.296       1150.5084    
     95800   2207.8999      3005.1789      3005.1789     -13601.779     -13601.779     -157.44343      3985.296       3985.296       1147.2178    
     95900   2213.1519      3154.1205      3154.1205     -16312.338     -16312.338     -157.49767      3985.296       3985.296       1150.0735    
     96000   2218.3389      2902.3265      2902.3265     -2706.4707     -2706.4707     -157.4724       3985.296       3985.296       1151.5402    
     96100   2223.2399      3321.1001      3321.1001     -246.90637     -246.90637     -157.46626      3985.296       3985.296       1154.0721    
     96200   2228.2219      3089.3182      3089.3182     -6386.9478     -6386.9478     -157.40134      3985.296       3985.296       1153.809     
     96300   2233.0129      3263.6045      3263.6045     -14482.42      -14482.42      -157.44944      3985.296       3985.296       1152.2868    
     96400   2238.0289      3222.4493      3222.4493     -11434.573     -11434.573     -157.48889      3985.296       3985.296       1151.7671    
     96500   2243.3689      2982.9872      2982.9872      9756.5956      9756.5956     -157.47114      3985.296       3985.296       1151.4648    
     96600   2248.7449      3273.8925      3273.8925      767.71325      767.71325     -157.51006      3985.296       3985.296       1152.9103    
     96700   2254.0849      3048.7462      3048.7462     -17804.092     -17804.092     -157.46375      3985.296       3985.296       1151.2249    
     96800   2259.4369      3303.4775      3303.4775     -11176.167     -11176.167     -157.4222       3985.296       3985.296       1150.3011    
     96900   2264.8659      3314.3673      3314.3673     -726.01684     -726.01684     -157.42752      3985.296       3985.296       1148.9187    
     97000   2270.2661      3295.6299      3295.6299      11700.48       11700.48      -157.4663       3985.296       3985.296       1148.2473    
     97100   2275.5039      3216.4762      3216.4762     -12015.138     -12015.138     -157.47892      3985.296       3985.296       1149.7902    
     97200   2281.1949      3145.8973      3145.8973     -434.48715     -434.48715     -157.47974      3985.296       3985.296       1149.0669    
     97300   2286.1109      3137.0939      3137.0939     -205.36183     -205.36183     -157.4758       3985.296       3985.296       1149.1293    
     97400   2291.0589      3047.9064      3047.9064      3396.6109      3396.6109     -157.41899      3985.296       3985.296       1150.0445    
     97500   2295.9589      3473.5137      3473.5137      3427.8457      3427.8457     -157.43402      3985.296       3985.296       1147.6656    
     97600   2300.6539      3402.4745      3402.4745     -15413.634     -15413.634     -157.45064      3985.296       3985.296       1148.4333    
     97700   2305.7599      2984.8764      2984.8764     -14492.849     -14492.849     -157.44578      3985.296       3985.296       1148.2469    
     97800   2311.2769      2988.3018      2988.3018     -15831.155     -15831.155     -157.45239      3985.296       3985.296       1147.0132    
     97900   2316.6969      3052.044       3052.044      -11222.807     -11222.807     -157.44732      3985.296       3985.296       1145.7369    
     98000   2321.7708      3348.126       3348.126      -19192.371     -19192.371     -157.45965      3985.296       3985.296       1145.991     
     98100   2326.6869      3229.2337      3229.2337     -928.59021     -928.59021     -157.42087      3985.296       3985.296       1147.3913    
     98200   2331.8349      3373.4325      3373.4325      10964.496      10964.496     -157.46036      3985.296       3985.296       1149.6965    
     98300   2336.8159      2980.1632      2980.1632     -9245.1312     -9245.1312     -157.46715      3985.296       3985.296       1149.0108    
     98400   2341.8219      2956.4332      2956.4332     -3570.6854     -3570.6854     -157.47938      3985.296       3985.296       1148.8133    
     98500   2347.1649      3030.2348      3030.2348     -7629.5877     -7629.5877     -157.48174      3985.296       3985.296       1148.3864    
     98600   2352.2249      3215.8841      3215.8841     -19986.299     -19986.299     -157.46402      3985.296       3985.296       1151.0039    
     98700   2357.3489      3392.3238      3392.3238     -11682.149     -11682.149     -157.45187      3985.296       3985.296       1146.9754    
     98800   2362.2829      3006.2364      3006.2364      5769.6436      5769.6436     -157.4362       3985.296       3985.296       1148.7989    
     98900   2367.8889      3224.2177      3224.2177     -3760.3391     -3760.3391     -157.4953       3985.296       3985.296       1147.4315    
     99000   2373.3849      3013.8749      3013.8749     -12256.551     -12256.551     -157.47483      3985.296       3985.296       1147.4512    
     99100   2378.7699      3012.5766      3012.5766     -1442.5199     -1442.5199     -157.47537      3985.296       3985.296       1146.7925    
     99200   2383.7779      2976.9784      2976.9784     -13235.276     -13235.276     -157.46742      3985.296       3985.296       1149.1552    
     99300   2389.0159      3051.8489      3051.8489     -1130.2705     -1130.2705     -157.45066      3985.296       3985.296       1149.2541    
