
units metal     # mass = g/mole, distance = Å, time = ps, energy = eV, force = eV/Å
atom_style atomic
read_data /home/epsilon/vld/univ5120/VLD/Thesis/llms-for-lammps/structures/example.data
Reading data file ...
  orthogonal box = (0 0 0) to (15.854536 15.854536 15.854536)
  4 by 4 by 8 MPI processor grid
  reading atoms ...
  200 atoms
  read_data CPU = 0.167 seconds
mass * 12.011   # all atoms are Carbon and therefore have mass ~12

pair_style quip
pair_coeff * * /home/epsilon/vld/univ5120/VLD/Thesis/llms-for-lammps/data/carbon.xml "" 6

neigh_modify every 1 delay 0 check yes
timestep 0.001

variable nAtoms equal atoms

fix removeMomentum all momentum 1 linear 1 1 1

compute T all temp
variable P equal press
variable v equal vol
variable PE_Atom equal c_PE/v_nAtoms

fix TempAve all ave/time 100 1 100 c_T
fix PressAve all ave/time 100 1 100 v_P
fix vAve all ave/time 100 1 100 v_v
fix PEAve_Atom all ave/time 100 1 100 v_PE_Atom

compute PE all pe pair
compute MSD all msd

thermo_style custom step cpu temp f_TempAve press f_PressAve f_PEAve_Atom vol f_vAve c_MSD[4]
thermo_modify flush yes
thermo 100

dump traj all atom 100 /home/epsilon/vld/univ5120/VLD/Thesis/llms-for-lammps/run/run_id1/dump/dump_file.dump.*.dat

velocity all create 3000 42

run 0
WARNING: No fixes with time integration, atoms won't move (src/verlet.cpp:60)
Neighbor list info ...
  update every 1 steps, delay 0 steps, check yes
  max neighbors/atom: 2000, page size: 100000
  master list distance cutoff = 5.7
  ghost atom cutoff = 5.7
  binsize = 2.85, bins = 6 6 6
  1 neighbor lists, perpetual/occasional/extra = 1 0 0
  (1) pair quip, perpetual
      attributes: full, newton on
      pair build: full/bin/atomonly
      stencil: full/bin/3d
      bin: standard
WARNING: Proc sub-domain size < neighbor skin, could lead to lost atoms (src/domain.cpp:970)
Per MPI rank memory allocation (min/avg/max) = 3.341 | 3.873 | 4.341 Mbytes
   Step          CPU            Temp        f_TempAve        Press        f_PressAve    f_PEAve_Atom      Volume         f_vAve        c_MSD[4]   
         0   0              3000           3000           4801.15        4801.15       -157.8272       3985.296       3985.296       0            
Loop time of 2.33025e-05 on 128 procs for 0 steps with 200 atoms

51.4% CPU use with 128 MPI tasks x 1 OpenMP threads

MPI task timing breakdown:
Section |  min time  |  avg time  |  max time  |%varavg| %total
---------------------------------------------------------------
Pair    | 0          | 0          | 0          |   0.0 |  0.00
Neigh   | 0          | 0          | 0          |   0.0 |  0.00
Comm    | 0          | 0          | 0          |   0.0 |  0.00
Output  | 0          | 0          | 0          |   0.0 |  0.00
Modify  | 0          | 0          | 0          |   0.0 |  0.00
Other   |            | 2.33e-05   |            |       |100.00

Nlocal:         1.5625 ave           6 max           0 min
Histogram: 60 8 0 12 0 30 13 0 4 1
Nghost:        156.531 ave         171 max         145 min
Histogram: 3 13 13 25 23 21 18 3 8 1
Neighs:              0 ave           0 max           0 min
Histogram: 128 0 0 0 0 0 0 0 0 0
FullNghs:         76.5 ave         367 max           0 min
Histogram: 63 7 8 18 20 4 2 2 1 3

Total # of neighbors = 9792
Ave neighs/atom = 48.96
Neighbor list builds = 0
Dangerous builds = 0

# (AI) PHASES:

# Phase 1:
fix integrate all nvt temp 3500 3500 0.1
run 50000
WARNING: Proc sub-domain size < neighbor skin, could lead to lost atoms (src/domain.cpp:970)
Per MPI rank memory allocation (min/avg/max) = 3.341 | 3.873 | 4.341 Mbytes
   Step          CPU            Temp        f_TempAve        Press        f_PressAve    f_PEAve_Atom      Volume         f_vAve        c_MSD[4]   
         0   0              3000           3000           4801.15        4801.15       -157.8272       3985.296       3985.296       0            
       100   5.2345631      1851.709       1851.709      -7031.872      -7031.872      -157.62192      3985.296       3985.296       0.15583411   
       200   10.226566      2293.0145      2293.0145     -12752.924     -12752.924     -157.58363      3985.296       3985.296       0.34676865   
       300   14.908566      2399.654       2399.654      -12254.524     -12254.524     -157.48118      3985.296       3985.296       0.78922528   
       400   19.569568      3162.8288      3162.8288      6339.5607      6339.5607     -157.4544       3985.296       3985.296       1.1352822    
       500   24.62957       3408.1241      3408.1241     -23130.783     -23130.783     -157.37113      3985.296       3985.296       1.0684341    
       600   29.578566      3561.4181      3561.4181      8703.2245      8703.2245     -157.3039       3985.296       3985.296       0.98894333   
       700   34.381566      3667.3752      3667.3752      4542.7861      4542.7861     -157.28432      3985.296       3985.296       0.91002133   
       800   39.652555      3688.2768      3688.2768     -16836.161     -16836.161     -157.33071      3985.296       3985.296       0.84477991   
       900   44.24156       3347.892       3347.892       4621.7207      4621.7207     -157.35589      3985.296       3985.296       1.0088872    
      1000   48.72069       3541.6421      3541.6421      12671.543      12671.543     -157.40162      3985.296       3985.296       1.0087363    
      1100   53.301556      3123.328       3123.328      -13716.803     -13716.803     -157.33088      3985.296       3985.296       1.1634904    
      1200   58.60756       3515.8479      3515.8479     -2713.6591     -2713.6591     -157.33483      3985.296       3985.296       1.4208178    
      1300   63.742575      3665.8067      3665.8067      21248.499      21248.499     -157.30893      3985.296       3985.296       1.3161367    
      1400   69.375564      3822.3179      3822.3179     -4469.9723     -4469.9723     -157.32644      3985.296       3985.296       1.0036495    
      1500   74.706598      3506.194       3506.194       803.09007      803.09007     -157.33359      3985.296       3985.296       0.81425787   
      1600   79.331571      3490.8695      3490.8695     -4606.9022     -4606.9022     -157.37679      3985.296       3985.296       0.84546715   
      1700   84.137554      3266.1427      3266.1427     -13766.766     -13766.766     -157.36402      3985.296       3985.296       1.1479007    
      1800   89.709556      3314.0921      3314.0921     -631.18452     -631.18452     -157.34527      3985.296       3985.296       1.3099554    
      1900   94.900565      3614.1222      3614.1222      14233.611      14233.611     -157.33527      3985.296       3985.296       1.1650656    
      2000   99.482551      3762.2074      3762.2074     -794.95059     -794.95059     -157.33677      3985.296       3985.296       1.0983051    
      2100   104.13856      3418.8497      3418.8497     -1175.5941     -1175.5941     -157.3076       3985.296       3985.296       1.0659077    
      2200   108.74056      3334.5862      3334.5862     -4704.2018     -4704.2018     -157.37531      3985.296       3985.296       1.1266032    
      2300   113.33257      3172.5245      3172.5245      7199.3991      7199.3991     -157.36373      3985.296       3985.296       1.4748716    
      2400   118.14257      3240.417       3240.417      -18363.753     -18363.753     -157.3331       3985.296       3985.296       1.9469277    
      2500   122.48155      3378.5536      3378.5536     -6906.0421     -6906.0421     -157.31182      3985.296       3985.296       2.4083708    
      2600   126.94755      3270.2983      3270.2983      3878.2672      3878.2672     -157.2907       3985.296       3985.296       2.7400415    
      2700   131.22056      3451.8991      3451.8991     -7272.7476     -7272.7476     -157.32061      3985.296       3985.296       3.0911992    
      2800   135.78057      3447.7401      3447.7401     -1803.9581     -1803.9581     -157.37204      3985.296       3985.296       3.4691934    
      2900   140.56356      3015.918       3015.918       4239.3197      4239.3197     -157.36521      3985.296       3985.296       3.7540746    
      3000   145.19556      2862.5433      2862.5433     -9430.8409     -9430.8409     -157.31869      3985.296       3985.296       4.1822607    
      3100   149.89656      3497.4384      3497.4384     -9397.8243     -9397.8243     -157.36219      3985.296       3985.296       4.4967723    
      3200   154.54656      3599.333       3599.333      -2394.6651     -2394.6651     -157.34869      3985.296       3985.296       5.0776342    
      3300   159.22255      3377.7864      3377.7864     -12408.845     -12408.845     -157.29411      3985.296       3985.296       5.593822     
      3400   163.65955      3458.5258      3458.5258      3362.0882      3362.0882     -157.27738      3985.296       3985.296       6.0847288    
      3500   168.64256      3779.8482      3779.8482      324.03096      324.03096     -157.29552      3985.296       3985.296       6.7426908    
      3600   172.95957      3862.8371      3862.8371     -11862.388     -11862.388     -157.29392      3985.296       3985.296       7.4764291    
      3700   177.31457      3724.2672      3724.2672      5374.4922      5374.4922     -157.32425      3985.296       3985.296       8.1175562    
      3800   182.00856      3393.8855      3393.8855      13169.015      13169.015     -157.3288       3985.296       3985.296       8.6621184    
      3900   186.63957      3334.5708      3334.5708      3288.5969      3288.5969     -157.33295      3985.296       3985.296       9.3809384    
      4000   191.19555      3288.0722      3288.0722      4934.1998      4934.1998     -157.30028      3985.296       3985.296       9.9662013    
      4100   195.58056      3539.8478      3539.8478      3319.4183      3319.4183     -157.26771      3985.296       3985.296       10.607653    
      4200   200.16356      3727.4493      3727.4493     -1261.6751     -1261.6751     -157.28608      3985.296       3985.296       10.932628    
      4300   204.58856      3416.8568      3416.8568     -11015.071     -11015.071     -157.27046      3985.296       3985.296       11.258306    
      4400   209.09956      3520.8492      3520.8492     -9630.7639     -9630.7639     -157.31673      3985.296       3985.296       11.526711    
      4500   214.28956      3572.102       3572.102       8552.6598      8552.6598     -157.33627      3985.296       3985.296       11.850705    
      4600   218.94556      3569.3478      3569.3478      5627.5806      5627.5806     -157.33989      3985.296       3985.296       12.429032    
      4700   223.66356      3442.589       3442.589       20123.445      20123.445     -157.32084      3985.296       3985.296       12.943525    
      4800   228.52356      3644.8795      3644.8795      438.25167      438.25167     -157.33916      3985.296       3985.296       13.347731    
      4900   233.31058      3588.6059      3588.6059      2314.2044      2314.2044     -157.32737      3985.296       3985.296       13.911512    
      5000   238.03756      3748.5169      3748.5169      7346.3665      7346.3665     -157.32805      3985.296       3985.296       14.419336    
      5100   242.56256      3664.841       3664.841       17439.819      17439.819     -157.30281      3985.296       3985.296       14.951918    
      5200   246.92156      3463.7018      3463.7018     -5316.1679     -5316.1679     -157.29384      3985.296       3985.296       15.58689     
      5300   251.48256      3219.1974      3219.1974     -9216.6455     -9216.6455     -157.31218      3985.296       3985.296       16.287734    
      5400   255.90956      3313.3806      3313.3806     -7757.6652     -7757.6652     -157.34403      3985.296       3985.296       16.760403    
      5500   260.55455      3353.142       3353.142       11010.662      11010.662     -157.33518      3985.296       3985.296       17.095569    
      5600   265.35256      3894.4416      3894.4416      8216.3097      8216.3097     -157.32302      3985.296       3985.296       17.212343    
      5700   269.74256      3531.4677      3531.4677      11367.006      11367.006     -157.27328      3985.296       3985.296       17.530738    
      5800   274.26705      3698.9534      3698.9534     -3804.7258     -3804.7258     -157.33578      3985.296       3985.296       17.982317    
      5900   278.63156      3123.4184      3123.4184      3846.0985      3846.0985     -157.2983       3985.296       3985.296       18.197719    
      6000   283.02956      3497.6281      3497.6281      17638.922      17638.922     -157.35202      3985.296       3985.296       18.556026    
      6100   287.49755      3361.3446      3361.3446      24016.405      24016.405     -157.31511      3985.296       3985.296       18.801191    
      6200   291.87556      3617.2302      3617.2302      7575.7123      7575.7123     -157.30719      3985.296       3985.296       18.796958    
      6300   296.04755      3822.2649      3822.2649      6521.4626      6521.4626     -157.23753      3985.296       3985.296       19.104056    
      6400   300.23456      4157.811       4157.811       16073.388      16073.388     -157.29348      3985.296       3985.296       19.171915    
      6500   304.96356      3540.8218      3540.8218      9278.2048      9278.2048     -157.27978      3985.296       3985.296       18.225006    
      6600   309.57114      3417.0665      3417.0665      3667.3174      3667.3174     -157.31306      3985.296       3985.296       15.815177    
      6700   314.25656      3308.4332      3308.4332     -287.40208     -287.40208     -157.3162       3985.296       3985.296       13.792594    
      6800   318.94792      3447.9375      3447.9375     -2622.73       -2622.73       -157.32549      3985.296       3985.296       12.104335    
      6900   323.50656      3534.3176      3534.3176      5955.6719      5955.6719     -157.29989      3985.296       3985.296       10.766288    
      7000   327.80956      3550.4835      3550.4835     -11790.219     -11790.219     -157.25807      3985.296       3985.296       9.5691075    
      7100   332.14756      3802.8299      3802.8299      8145.1914      8145.1914     -157.31585      3985.296       3985.296       8.8922434    
      7200   336.71056      3361.5114      3361.5114     -1617.6861     -1617.6861     -157.32998      3985.296       3985.296       8.346372     
      7300   341.30656      3139.3004      3139.3004      7079.0414      7079.0414     -157.29884      3985.296       3985.296       7.899347     
      7400   345.89957      3757.0482      3757.0482     -8078.4303     -8078.4303     -157.34046      3985.296       3985.296       7.8743002    
      7500   350.14156      3730.7371      3730.7371     -5728.6993     -5728.6993     -157.30242      3985.296       3985.296       7.7124515    
      7600   354.45256      3461.0231      3461.0231      26271.102      26271.102     -157.25269      3985.296       3985.296       7.4401809    
      7700   358.81456      3269.4136      3269.4136     -29361.78      -29361.78      -157.27003      3985.296       3985.296       7.6489767    
      7800   363.36756      3143.356       3143.356       3807.5528      3807.5528     -157.30996      3985.296       3985.296       7.7284221    
      7900   367.59856      3323.3148      3323.3148      10153.081      10153.081     -157.30888      3985.296       3985.296       8.565203     
      8000   372.02156      3464.9566      3464.9566     -5265.9969     -5265.9969     -157.27485      3985.296       3985.296       9.1636973    
      8100   376.33556      3358.495       3358.495       8474.3054      8474.3054     -157.24613      3985.296       3985.296       9.1877558    
      8200   380.67857      3489.6458      3489.6458      3891.7577      3891.7577     -157.25701      3985.296       3985.296       9.6734738    
      8300   384.75657      3470.8375      3470.8375      6074.3729      6074.3729     -157.24514      3985.296       3985.296       10.287997    
      8400   389.09556      3499.3222      3499.3222     -928.09771     -928.09771     -157.22031      3985.296       3985.296       10.672679    
      8500   393.63257      3836.2873      3836.2873     -7049.6572     -7049.6572     -157.25129      3985.296       3985.296       11.271645    
      8600   398.15656      3511.6802      3511.6802      31210.06       31210.06      -157.26529      3985.296       3985.296       12.045598    
      8700   402.73756      3273.1199      3273.1199      13979.595      13979.595     -157.27246      3985.296       3985.296       12.729388    
      8800   407.08155      3210.5328      3210.5328      18195.338      18195.338     -157.26501      3985.296       3985.296       13.519751    
      8900   411.57758      3396.4831      3396.4831      20190.645      20190.645     -157.26865      3985.296       3985.296       14.040111    
      9000   415.89856      3797.9255      3797.9255      6590.5794      6590.5794     -157.25009      3985.296       3985.296       14.852281    
      9100   420.44158      3821.343       3821.343       6238.6878      6238.6878     -157.24351      3985.296       3985.296       15.460728    
      9200   425.30248      3560.9984      3560.9984      8778.7231      8778.7231     -157.24424      3985.296       3985.296       16.183698    
      9300   429.91856      3608.8301      3608.8301      7235.6941      7235.6941     -157.2873       3985.296       3985.296       16.645746    
      9400   434.63556      3720.5607      3720.5607      22232.86       22232.86      -157.32207      3985.296       3985.296       16.83752     
      9500   439.28356      3190.8449      3190.8449      5603.1097      5603.1097     -157.2784       3985.296       3985.296       16.661216    
      9600   443.64055      3292.0286      3292.0286      7886.3417      7886.3417     -157.29894      3985.296       3985.296       16.837429    
      9700   448.09356      3366.8405      3366.8405      23398.789      23398.789     -157.30753      3985.296       3985.296       17.188824    
      9800   452.60157      3215.0628      3215.0628      13695.807      13695.807     -157.25995      3985.296       3985.296       17.065295    
      9900   456.93556      3764.0068      3764.0068      8296.346       8296.346      -157.31144      3985.296       3985.296       17.580361    
     10000   461.17356      3505.8996      3505.8996      19442.463      19442.463     -157.27246      3985.296       3985.296       18.253453    
     10100   465.70756      3617.8781      3617.8781      15094.596      15094.596     -157.2937       3985.296       3985.296       17.924344    
     10200   470.21556      3511.9981      3511.9981     -16147.672     -16147.672     -157.31604      3985.296       3985.296       17.873521    
     10300   474.59256      3418.7454      3418.7454      32534.837      32534.837     -157.33693      3985.296       3985.296       17.718183    
     10400   478.93055      3256.5333      3256.5333      13459.397      13459.397     -157.33248      3985.296       3985.296       17.910389    
     10500   483.57055      3626.7026      3626.7026      34817.207      34817.207     -157.32458      3985.296       3985.296       17.206649    
     10600   488.08756      3808.525       3808.525       11668.41       11668.41      -157.30503      3985.296       3985.296       16.598       
     10700   492.28457      3427.4237      3427.4237      8230.3365      8230.3365     -157.26738      3985.296       3985.296       16.738594    
     10800   496.52357      3455.7235      3455.7235      13804.888      13804.888     -157.30414      3985.296       3985.296       16.595375    
     10900   500.71055      3521.1774      3521.1774      32863.669      32863.669     -157.34882      3985.296       3985.296       16.31308     
     11000   505.03856      3066.7025      3066.7025      22088.388      22088.388     -157.32343      3985.296       3985.296       15.381887    
     11100   509.26856      3125.0696      3125.0696      9181.9936      9181.9936     -157.3344       3985.296       3985.296       14.249571    
     11200   513.68056      3510.5226      3510.5226      7697.5937      7697.5937     -157.32116      3985.296       3985.296       13.275272    
     11300   518.13656      3394.2002      3394.2002      9547.8467      9547.8467     -157.26574      3985.296       3985.296       12.473539    
     11400   522.60657      3592.4089      3592.4089      18493.449      18493.449     -157.28921      3985.296       3985.296       11.958765    
     11500   527.83255      3663.4519      3663.4519      19294.279      19294.279     -157.33261      3985.296       3985.296       11.496659    
     11600   532.29156      3272.9058      3272.9058      1846.6788      1846.6788     -157.33395      3985.296       3985.296       11.548       
     11700   536.88156      3266.8228      3266.8228      15548.355      15548.355     -157.32767      3985.296       3985.296       11.49086     
     11800   541.30871      3302.1524      3302.1524      4128.2168      4128.2168     -157.28975      3985.296       3985.296       10.994044    
     11900   545.86556      3804.9516      3804.9516      18857.092      18857.092     -157.33167      3985.296       3985.296       10.704168    
     12000   550.30256      3455.9379      3455.9379      16231.895      16231.895     -157.2902       3985.296       3985.296       10.447438    
     12100   555.22855      3444.609       3444.609       31675.177      31675.177     -157.30466      3985.296       3985.296       10.733537    
     12200   560.10855      3666.6671      3666.6671      13838.293      13838.293     -157.33874      3985.296       3985.296       12.044891    
     12300   564.78256      3656.9151      3656.9151      36630.688      36630.688     -157.32291      3985.296       3985.296       13.969016    
     12400   569.56855      3488.2604      3488.2604      16212.689      16212.689     -157.26846      3985.296       3985.296       15.717048    
     12500   574.35256      3672.5962      3672.5962      29269.647      29269.647     -157.27297      3985.296       3985.296       17.940529    
     12600   579.13056      3173.9194      3173.9194      14128.603      14128.603     -157.25854      3985.296       3985.296       20.208441    
     12700   583.85255      3580.2157      3580.2157      15220.947      15220.947     -157.35424      3985.296       3985.296       21.293838    
     12800   588.42164      3600.7218      3600.7218      14665.757      14665.757     -157.35167      3985.296       3985.296       22.039922    
     12900   593.10557      3572.7223      3572.7223      29994.709      29994.709     -157.31615      3985.296       3985.296       22.656897    
     13000   597.91856      3504.8533      3504.8533      5060.8113      5060.8113     -157.25863      3985.296       3985.296       24.251902    
     13100   602.75856      3525.9808      3525.9808      15563.717      15563.717     -157.19147      3985.296       3985.296       25.801813    
     13200   607.69456      3965.8352      3965.8352     -3875.3849     -3875.3849     -157.21037      3985.296       3985.296       27.228285    
     13300   612.61455      3728.4745      3728.4745      14489.648      14489.648     -157.27994      3985.296       3985.296       28.587733    
     13400   617.63256      3494.6311      3494.6311      4648.8505      4648.8505     -157.29424      3985.296       3985.296       29.619358    
     13500   622.32357      3384.0096      3384.0096      32837.415      32837.415     -157.31619      3985.296       3985.296       30.417972    
     13600   626.83656      3206.6938      3206.6938     -2042.9481     -2042.9481     -157.29505      3985.296       3985.296       31.125358    
     13700   631.68556      3423.5179      3423.5179      13132.329      13132.329     -157.28295      3985.296       3985.296       31.928493    
     13800   636.36756      3986.648       3986.648       42716.352      42716.352     -157.31592      3985.296       3985.296       33.541916    
     13900   640.81455      3811.5773      3811.5773      15201.279      15201.279     -157.3019       3985.296       3985.296       35.270847    
     14000   645.17256      3429.3989      3429.3989      43175.002      43175.002     -157.3307       3985.296       3985.296       36.199535    
     14100   649.32855      3203.1312      3203.1312      11641.547      11641.547     -157.32802      3985.296       3985.296       37.397664    
     14200   653.60357      3462.0894      3462.0894      22711.329      22711.329     -157.33784      3985.296       3985.296       38.803318    
     14300   657.86657      3631.3151      3631.3151      16580.472      16580.472     -157.31329      3985.296       3985.296       40.01531     
     14400   662.12356      3800.0912      3800.0912      12140.734      12140.734     -157.31711      3985.296       3985.296       41.310757    
     14500   666.31656      3566.4615      3566.4615      20096.081      20096.081     -157.31022      3985.296       3985.296       42.81007     
     14600   670.60855      3148.856       3148.856       9466.3184      9466.3184     -157.3262       3985.296       3985.296       44.281444    
     14700   674.71956      3352.4106      3352.4106      17234.168      17234.168     -157.35625      3985.296       3985.296       44.957603    
     14800   678.85755      3264.9775      3264.9775      5548.4206      5548.4206     -157.31232      3985.296       3985.296       45.454944    
     14900   683.18556      3518.2678      3518.2678      16211.887      16211.887     -157.30195      3985.296       3985.296       45.42437     
     15000   687.68055      3289.5266      3289.5266     -7691.1039     -7691.1039     -157.24631      3985.296       3985.296       45.3793      
     15100   692.42756      3703.1924      3703.1924      15464.589      15464.589     -157.30264      3985.296       3985.296       44.338917    
     15200   697.76056      3266.2149      3266.2149      18099.497      18099.497     -157.30521      3985.296       3985.296       42.694416    
     15300   703.07857      3257.6536      3257.6536      8831.9311      8831.9311     -157.335        3985.296       3985.296       39.906547    
     15400   708.15156      3512.5695      3512.5695      5920.4892      5920.4892     -157.34438      3985.296       3985.296       36.924712    
     15500   712.75056      3415.2621      3415.2621      10824.38       10824.38      -157.30341      3985.296       3985.296       34.921173    
     15600   717.33656      3788.5135      3788.5135      29766.56       29766.56      -157.33535      3985.296       3985.296       33.764664    
     15700   721.94955      3806.5254      3806.5254      28932.478      28932.478     -157.32264      3985.296       3985.296       33.099059    
     15800   726.34056      3524.4406      3524.4406      16345.325      16345.325     -157.3095       3985.296       3985.296       34.736966    
     15900   731.00655      3279.6897      3279.6897      10280.011      10280.011     -157.3489       3985.296       3985.296       36.460431    
     16000   735.69056      3355.658       3355.658       5994.8896      5994.8896     -157.35652      3985.296       3985.296       37.979847    
     16100   740.44555      3622.9215      3622.9215      16297.363      16297.363     -157.34882      3985.296       3985.296       38.965536    
     16200   745.12956      3609.1907      3609.1907      25957.691      25957.691     -157.31137      3985.296       3985.296       40.224253    
     16300   749.75356      3554.5048      3554.5048     -3450.5244     -3450.5244     -157.29113      3985.296       3985.296       41.947335    
     16400   754.32756      3441.4311      3441.4311      25914.056      25914.056     -157.27671      3985.296       3985.296       43.48987     
     16500   758.87056      3680.6324      3680.6324      1955.1074      1955.1074     -157.31697      3985.296       3985.296       43.460261    
     16600   763.81756      3402.8971      3402.8971      4307.6726      4307.6726     -157.32891      3985.296       3985.296       43.029897    
     16700   768.48457      3445.2649      3445.2649      19270.739      19270.739     -157.36131      3985.296       3985.296       42.044926    
     16800   773.15456      3607.0061      3607.0061      16354.14       16354.14      -157.35294      3985.296       3985.296       41.624613    
     16900   777.96556      3605.6439      3605.6439      4475.4575      4475.4575     -157.2966       3985.296       3985.296       41.136286    
     17000   782.31156      3401.032       3401.032       16808.679      16808.679     -157.26233      3985.296       3985.296       40.049204    
     17100   786.73856      3332.1633      3332.1633     -4499.3155     -4499.3155     -157.26905      3985.296       3985.296       39.295453    
     17200   791.30356      3686.838       3686.838       35088.148      35088.148     -157.32805      3985.296       3985.296       38.244728    
     17300   795.75955      3626.2301      3626.2301     -8312.7584     -8312.7584     -157.34947      3985.296       3985.296       37.521754    
     17400   800.42783      3152.1364      3152.1364      29655.701      29655.701     -157.33404      3985.296       3985.296       37.092682    
     17500   805.18269      3311.0034      3311.0034      8809.3269      8809.3269     -157.34199      3985.296       3985.296       37.446054    
     17600   809.68256      3282.1024      3282.1024      10692.36       10692.36      -157.28167      3985.296       3985.296       37.13181     
     17700   814.28357      3485.8395      3485.8395      22924.387      22924.387     -157.28524      3985.296       3985.296       37.386155    
     17800   818.89755      3975.2565      3975.2565      23714.179      23714.179     -157.3601       3985.296       3985.296       37.785306    
     17900   823.0983       3436.2807      3436.2807      23634.342      23634.342     -157.31658      3985.296       3985.296       38.358791    
     18000   827.57656      3089.9839      3089.9839     -10847.644     -10847.644     -157.30232      3985.296       3985.296       39.201864    
     18100   832.29156      3051.078       3051.078       5066.7767      5066.7767     -157.34804      3985.296       3985.296       40.082848    
     18200   836.81155      3214.67        3214.67        12450.467      12450.467     -157.35978      3985.296       3985.296       41.399642    
     18300   841.43056      3529.6449      3529.6449      11948.801      11948.801     -157.33855      3985.296       3985.296       42.756067    
     18400   846.46956      3343.1614      3343.1614      15131.495      15131.495     -157.29074      3985.296       3985.296       44.27926     
     18500   851.32356      3637.5937      3637.5937      12188.347      12188.347     -157.31445      3985.296       3985.296       46.086059    
     18600   856.00656      3520.8572      3520.8572     -4968.1192     -4968.1192     -157.29612      3985.296       3985.296       48.115399    
     18700   860.41356      3380.2651      3380.2651     -7016.9442     -7016.9442     -157.3074       3985.296       3985.296       47.74517     
     18800   865.15556      3328.5767      3328.5767      40536.312      40536.312     -157.33957      3985.296       3985.296       47.941363    
     18900   869.76456      3054.2841      3054.2841     -9152.5626     -9152.5626     -157.30181      3985.296       3985.296       48.794527    
     19000   874.69756      3483.8432      3483.8432      19021.919      19021.919     -157.28874      3985.296       3985.296       48.883987    
     19100   879.40756      3248.6754      3248.6754     -2810.6547     -2810.6547     -157.23936      3985.296       3985.296       47.785834    
     19200   884.39556      3813.383       3813.383       9591.9054      9591.9054     -157.32325      3985.296       3985.296       46.511375    
     19300   888.90956      3486.5526      3486.5526      27529.463      27529.463     -157.32162      3985.296       3985.296       43.876399    
     19400   893.45556      3248.5763      3248.5763     -13016.994     -13016.994     -157.33231      3985.296       3985.296       41.968779    
     19500   898.23356      3501.4348      3501.4348      3416.5504      3416.5504     -157.34334      3985.296       3985.296       43.178992    
     19600   903.03056      3689.9315      3689.9315      10321.428      10321.428     -157.28323      3985.296       3985.296       46.626648    
     19700   907.88056      3866.6317      3866.6317      23483.548      23483.548     -157.31294      3985.296       3985.296       50.199678    
     19800   912.32656      3519.2436      3519.2436      11586.362      11586.362     -157.31491      3985.296       3985.296       49.600113    
     19900   916.59556      3321.5986      3321.5986     -967.60637     -967.60637     -157.31637      3985.296       3985.296       48.362423    
     20000   920.87358      3359.3029      3359.3029     -1837.0842     -1837.0842     -157.31241      3985.296       3985.296       46.860082    
     20100   925.36555      3483.5685      3483.5685      5326.8542      5326.8542     -157.25696      3985.296       3985.296       44.846709    
     20200   930.11455      3387.7648      3387.7648      20828.469      20828.469     -157.22812      3985.296       3985.296       43.621841    
     20300   934.90456      3688.8434      3688.8434      19935.053      19935.053     -157.29924      3985.296       3985.296       43.302451    
     20400   939.22356      3537.3691      3537.3691      3779.3801      3779.3801     -157.31718      3985.296       3985.296       43.282859    
     20500   943.64256      3604.1153      3604.1153      24654.736      24654.736     -157.33852      3985.296       3985.296       42.210737    
     20600   948.16355      3208.8214      3208.8214      28697.932      28697.932     -157.2784       3985.296       3985.296       42.516485    
     20700   952.47457      3490.7834      3490.7834     -846.75661     -846.75661     -157.27524      3985.296       3985.296       44.178818    
     20800   957.10857      3764.0721      3764.0721      12604.695      12604.695     -157.28162      3985.296       3985.296       45.981146    
     20900   962.04987      3576.0377      3576.0377      6278.9175      6278.9175     -157.27141      3985.296       3985.296       47.838616    
     21000   966.60556      3647.8323      3647.8323      4906.8782      4906.8782     -157.31701      3985.296       3985.296       49.931645    
     21100   971.53057      3335.7075      3335.7075      10143.967      10143.967     -157.31656      3985.296       3985.296       52.2707      
     21200   976.34756      3643.492       3643.492       23684.687      23684.687     -157.37541      3985.296       3985.296       54.797162    
     21300   981.25055      3352.2405      3352.2405      8767.5888      8767.5888     -157.34718      3985.296       3985.296       56.188044    
     21400   986.02555      3349.8217      3349.8217      17752.271      17752.271     -157.32334      3985.296       3985.296       57.050375    
     21500   990.56756      3722.1012      3722.1012      13892.907      13892.907     -157.31638      3985.296       3985.296       57.578453    
     21600   995.40755      3345.5946      3345.5946      20562.192      20562.192     -157.25153      3985.296       3985.296       58.834795    
     21700   1000.4736      3128.4571      3128.4571      20661.18       20661.18      -157.25412      3985.296       3985.296       59.732981    
     21800   1005.2316      3308.3142      3308.3142      9481.2363      9481.2363     -157.33052      3985.296       3985.296       60.275885    
     21900   1010.5146      3435.7528      3435.7528      20174.249      20174.249     -157.35695      3985.296       3985.296       60.525158    
     22000   1015.4976      3174.6191      3174.6191     -1827.981      -1827.981      -157.30465      3985.296       3985.296       59.946211    
     22100   1020.3796      3385.7186      3385.7186      9216.3747      9216.3747     -157.31148      3985.296       3985.296       58.676124    
     22200   1025.0426      3705.7708      3705.7708      17148.225      17148.225     -157.33467      3985.296       3985.296       55.807658    
     22300   1029.6256      3377.128       3377.128       28698.464      28698.464     -157.27655      3985.296       3985.296       53.041444    
     22400   1033.8096      3721.675       3721.675       6602.5871      6602.5871     -157.28624      3985.296       3985.296       51.662141    
     22500   1037.9976      3502.0772      3502.0772     -1731.0307     -1731.0307     -157.25776      3985.296       3985.296       51.200934    
     22600   1042.4536      3531.1372      3531.1372      25303.23       25303.23      -157.31458      3985.296       3985.296       51.420798    
     22700   1047.6676      3544.6069      3544.6069      20348.472      20348.472     -157.35159      3985.296       3985.296       51.976695    
     22800   1052.3416      3464.8431      3464.8431      19479.653      19479.653     -157.33806      3985.296       3985.296       52.24735     
     22900   1057.1608      3602.886       3602.886       33744.903      33744.903     -157.321        3985.296       3985.296       52.775431    
     23000   1062.0126      3407.5181      3407.5181     -14905.825     -14905.825     -157.22063      3985.296       3985.296       53.37433     
     23100   1066.4248      4007.7343      4007.7343      39396.457      39396.457     -157.27858      3985.296       3985.296       53.655448    
     23200   1071.0346      3708.5131      3708.5131      25665.742      25665.742     -157.27353      3985.296       3985.296       53.557258    
     23300   1075.7156      3312.0536      3312.0536      16660.465      16660.465     -157.26265      3985.296       3985.296       53.550419    
     23400   1080.7316      3545.4631      3545.4631      4787.0977      4787.0977     -157.32455      3985.296       3985.296       52.41566     
     23500   1085.5946      3588.6441      3588.6441      10525.91       10525.91      -157.35285      3985.296       3985.296       52.063184    
     23600   1090.4456      3381.3909      3381.3909      2576.5161      2576.5161     -157.33345      3985.296       3985.296       52.102349    
     23700   1094.6296      3705.3819      3705.3819      37680.684      37680.684     -157.31812      3985.296       3985.296       52.143991    
     23800   1099.3616      3581.8452      3581.8452     -468.45485     -468.45485     -157.26763      3985.296       3985.296       52.031489    
     23900   1104.3646      3427.5127      3427.5127      22797.111      22797.111     -157.262        3985.296       3985.296       51.580977    
     24000   1108.6226      3321.2648      3321.2648      16527.821      16527.821     -157.29893      3985.296       3985.296       52.183336    
     24100   1113.2059      3510.1055      3510.1055     -8956.1418     -8956.1418     -157.35192      3985.296       3985.296       52.874646    
     24200   1117.4626      3301.1976      3301.1976      24713.865      24713.865     -157.30989      3985.296       3985.296       53.142515    
     24300   1121.4726      3178.9984      3178.9984      13341.433      13341.433     -157.27092      3985.296       3985.296       53.428706    
     24400   1125.5626      3464.5472      3464.5472      15639.182      15639.182     -157.27908      3985.296       3985.296       54.26242     
     24500   1129.8476      3455.5141      3455.5141      35584.036      35584.036     -157.25443      3985.296       3985.296       54.596821    
     24600   1133.7896      3648.2573      3648.2573      20237.096      20237.096     -157.28303      3985.296       3985.296       54.963517    
     24700   1138.7747      3463.9962      3463.9962      32448.165      32448.165     -157.33482      3985.296       3985.296       55.873252    
     24800   1143.1486      3384.3283      3384.3283      15420.958      15420.958     -157.34478      3985.296       3985.296       56.884329    
     24900   1147.6566      3229.3369      3229.3369      21351.233      21351.233     -157.29506      3985.296       3985.296       58.133893    
     25000   1152.0726      3803.6708      3803.6708      17617.591      17617.591     -157.32278      3985.296       3985.296       59.311784    
     25100   1156.5636      3618.2458      3618.2458      22868.555      22868.555     -157.28818      3985.296       3985.296       61.158823    
     25200   1161.2096      3766.7479      3766.7479      14834.943      14834.943     -157.32147      3985.296       3985.296       62.972741    
     25300   1165.7176      3588.9574      3588.9574      22460.955      22460.955     -157.32849      3985.296       3985.296       65.150028    
     25400   1171.0616      3474.4841      3474.4841      15001.196      15001.196     -157.3284       3985.296       3985.296       67.064248    
     25500   1175.8646      3405.8835      3405.8835      24487.391      24487.391     -157.31324      3985.296       3985.296       68.574773    
     25600   1180.2206      3425.6379      3425.6379      17998.043      17998.043     -157.30812      3985.296       3985.296       69.720976    
     25700   1184.9596      3180.663       3180.663       32417.364      32417.364     -157.25939      3985.296       3985.296       70.385869    
     25800   1189.9415      3440.2742      3440.2742      13817.04       13817.04      -157.27573      3985.296       3985.296       71.286334    
     25900   1194.2976      3569.446       3569.446       18206.33       18206.33      -157.27165      3985.296       3985.296       72.101391    
     26000   1198.9716      4039.9232      4039.9232      35140.051      35140.051     -157.32713      3985.296       3985.296       72.868884    
     26100   1203.3706      3402.2518      3402.2518      9592.8555      9592.8555     -157.28172      3985.296       3985.296       72.578132    
     26200   1208.1236      3180.1976      3180.1976      13010.304      13010.304     -157.29935      3985.296       3985.296       71.58563     
     26300   1213.0266      3175.3211      3175.3211      5615.9189      5615.9189     -157.29995      3985.296       3985.296       71.019212    
     26400   1218.0336      3403.4424      3403.4424      28493.404      28493.404     -157.27504      3985.296       3985.296       70.975903    
     26500   1222.3196      3841.4147      3841.4147     -4530.7893     -4530.7893     -157.29618      3985.296       3985.296       72.38083     
     26600   1226.7586      3615.4932      3615.4932      18011.368      18011.368     -157.28861      3985.296       3985.296       73.631201    
     26700   1231.3216      3744.396       3744.396       20787.97       20787.97      -157.34472      3985.296       3985.296       77.311645    
     26800   1235.8896      3135.0663      3135.0663      30047.552      30047.552     -157.29401      3985.296       3985.296       81.250066    
     26900   1240.3596      3386.6954      3386.6954      17308.526      17308.526     -157.32037      3985.296       3985.296       85.309509    
     27000   1244.6556      3595.7987      3595.7987      15170.745      15170.745     -157.28114      3985.296       3985.296       89.295914    
     27100   1249.3526      3681.1325      3681.1325      27522.857      27522.857     -157.25868      3985.296       3985.296       94.030233    
     27200   1253.5596      3806.6179      3806.6179     -1163.3369     -1163.3369     -157.3221       3985.296       3985.296       97.244582    
     27300   1257.9426      3492.8754      3492.8754      9839.7776      9839.7776     -157.32253      3985.296       3985.296       98.085857    
     27400   1262.3746      3577.2436      3577.2436      7000.3263      7000.3263     -157.34732      3985.296       3985.296       98.692475    
     27500   1266.8156      3605.7036      3605.7036      7639.4572      7639.4572     -157.35041      3985.296       3985.296       98.528266    
     27600   1271.4496      3671.4836      3671.4836      33022.909      33022.909     -157.32715      3985.296       3985.296       97.202095    
     27700   1275.8686      3759.5059      3759.5059      26938.1        26938.1       -157.28374      3985.296       3985.296       94.976305    
     27800   1280.5576      3844.1884      3844.1884      20058.781      20058.781     -157.29965      3985.296       3985.296       92.600031    
     27900   1285.3596      3737.7983      3737.7983      27942.693      27942.693     -157.35023      3985.296       3985.296       90.62905     
     28000   1290.1706      3548.3581      3548.3581      16155.949      16155.949     -157.34854      3985.296       3985.296       89.745824    
     28100   1294.3076      3386.4901      3386.4901      14076.245      14076.245     -157.32541      3985.296       3985.296       90.681357    
     28200   1298.6016      3605.2169      3605.2169      31617.974      31617.974     -157.33788      3985.296       3985.296       90.957411    
     28300   1303.3146      3709.2166      3709.2166      18645.947      18645.947     -157.30457      3985.296       3985.296       91.676187    
     28400   1307.6616      3850.9119      3850.9119      23049.359      23049.359     -157.28403      3985.296       3985.296       92.917184    
     28500   1312.1266      3545.0471      3545.0471      22808.653      22808.653     -157.29231      3985.296       3985.296       94.387789    
     28600   1316.3026      3491.6859      3491.6859      3234.0169      3234.0169     -157.34         3985.296       3985.296       96.006825    
     28700   1320.7325      3372.8251      3372.8251      30361.729      30361.729     -157.32924      3985.296       3985.296       95.749078    
     28800   1325.3556      3453.0194      3453.0194      12477.292      12477.292     -157.34709      3985.296       3985.296       93.888482    
     28900   1330.2366      3631.0741      3631.0741      18357.999      18357.999     -157.38481      3985.296       3985.296       92.026216    
     29000   1334.6036      3343.1021      3343.1021      9961.6145      9961.6145     -157.36779      3985.296       3985.296       91.61545     
     29100   1338.7346      3453.8617      3453.8617      15883.299      15883.299     -157.38006      3985.296       3985.296       92.543603    
     29200   1342.8476      3631.5058      3631.5058      21834.103      21834.103     -157.35198      3985.296       3985.296       95.814435    
     29300   1346.9516      3527.5252      3527.5252      4443.5757      4443.5757     -157.30124      3985.296       3985.296       100.13897    
     29400   1351.2596      3286.0528      3286.0528      15887.154      15887.154     -157.27758      3985.296       3985.296       101.4345     
     29500   1355.6687      3653.0444      3653.0444     -3597.7325     -3597.7325     -157.362        3985.296       3985.296       102.10148    
     29600   1360.0396      3118.3778      3118.3778      5223.1225      5223.1225     -157.3521       3985.296       3985.296       103.57789    
     29700   1364.1126      3236.5319      3236.5319     -4497.1899     -4497.1899     -157.36384      3985.296       3985.296       105.57469    
     29800   1368.3736      3176.2866      3176.2866      40028.229      40028.229     -157.32779      3985.296       3985.296       107.8054     
     29900   1372.8736      3630.2249      3630.2249      11416.167      11416.167     -157.35247      3985.296       3985.296       110.38701    
     30000   1377.2706      3582.903       3582.903       9288.2223      9288.2223     -157.32044      3985.296       3985.296       113.71664    
     30100   1381.3726      3666.547       3666.547       26299.27       26299.27      -157.32527      3985.296       3985.296       117.32443    
     30200   1385.7766      3653.1458      3653.1458      24192.204      24192.204     -157.372        3985.296       3985.296       118.40909    
     30300   1389.8816      3478.8653      3478.8653      12086.19       12086.19      -157.39239      3985.296       3985.296       117.4925     
     30400   1393.8646      3326.6401      3326.6401     -469.44666     -469.44666     -157.3468       3985.296       3985.296       114.78076    
     30500   1397.9816      3447.6605      3447.6605      7890.0556      7890.0556     -157.31393      3985.296       3985.296       112.69798    
     30600   1402.4066      3548.0721      3548.0721      28681.435      28681.435     -157.31948      3985.296       3985.296       114.91049    
     30700   1406.5186      3615.3067      3615.3067      22674.918      22674.918     -157.34201      3985.296       3985.296       118.31701    
     30800   1410.6646      3559.7457      3559.7457      22882.351      22882.351     -157.38171      3985.296       3985.296       121.49166    
     30900   1414.8296      3324.5259      3324.5259      10351.071      10351.071     -157.39645      3985.296       3985.296       124.41589    
     31000   1419.1386      3265.7563      3265.7563      18828.952      18828.952     -157.36531      3985.296       3985.296       125.94992    
     31100   1423.5166      3463.4185      3463.4185      7479.7848      7479.7848     -157.31733      3985.296       3985.296       127.71446    
     31200   1428.3356      3365.8676      3365.8676     -2547.6546     -2547.6546     -157.30259      3985.296       3985.296       129.29774    
     31300   1432.8916      3591.6839      3591.6839      16071.778      16071.778     -157.33874      3985.296       3985.296       130.54749    
     31400   1437.4456      3392.3661      3392.3661      2524.0061      2524.0061     -157.33535      3985.296       3985.296       131.82633    
     31500   1441.8576      3252.5983      3252.5983      19140.139      19140.139     -157.34581      3985.296       3985.296       133.34076    
     31600   1446.3886      3220.6557      3220.6557      17529.795      17529.795     -157.35937      3985.296       3985.296       135.33152    
     31700   1451.0766      3296.6892      3296.6892      11045.455      11045.455     -157.33774      3985.296       3985.296       137.00357    
     31800   1455.2266      3899.8134      3899.8134      12109.423      12109.423     -157.35743      3985.296       3985.296       139.00829    
     31900   1459.5315      3839.907       3839.907      -6105.4177     -6105.4177     -157.3447       3985.296       3985.296       141.2422     
     32000   1463.8116      3752.9062      3752.9062      8547.7656      8547.7656     -157.37304      3985.296       3985.296       142.6372     
     32100   1468.0356      3163.9946      3163.9946      27141.401      27141.401     -157.33823      3985.296       3985.296       141.99319    
     32200   1472.6506      3422.836       3422.836      -2013.2125     -2013.2125     -157.36843      3985.296       3985.296       141.14782    
     32300   1476.9806      3670.9468      3670.9468      13034.896      13034.896     -157.38583      3985.296       3985.296       139.9273     
     32400   1481.3756      3318.9252      3318.9252      1704.2758      1704.2758     -157.31717      3985.296       3985.296       139.4441     
     32500   1485.6056      3464.8276      3464.8276      33181.729      33181.729     -157.30787      3985.296       3985.296       139.77927    
     32600   1489.7016      3974.2872      3974.2872      5936.0812      5936.0812     -157.31793      3985.296       3985.296       141.03536    
     32700   1494.0266      3736.3976      3736.3976     -594.90289     -594.90289     -157.25176      3985.296       3985.296       142.55659    
     32800   1498.6286      3857.6846      3857.6846      13551.557      13551.557     -157.33997      3985.296       3985.296       144.50474    
     32900   1503.0476      3465.7809      3465.7809      5000.8862      5000.8862     -157.33092      3985.296       3985.296       146.05545    
     33000   1507.2726      3450.6797      3450.6797      20923.958      20923.958     -157.3485       3985.296       3985.296       147.65728    
     33100   1511.2746      3382.2058      3382.2058      16831.459      16831.459     -157.34946      3985.296       3985.296       149.07829    
     33200   1515.7656      3409.5501      3409.5501      15531.519      15531.519     -157.32334      3985.296       3985.296       149.38164    
     33300   1519.9716      3775.0325      3775.0325      30142.857      30142.857     -157.31999      3985.296       3985.296       149.38716    
     33400   1524.5026      3738.725       3738.725       2371.4332      2371.4332     -157.30484      3985.296       3985.296       150.91975    
     33500   1528.6186      3451.8915      3451.8915      4797.1978      4797.1978     -157.33875      3985.296       3985.296       152.2321     
     33600   1532.8226      3298.6216      3298.6216      14895.781      14895.781     -157.3537       3985.296       3985.296       152.91772    
     33700   1536.9224      3301.7554      3301.7554      13680.563      13680.563     -157.32204      3985.296       3985.296       153.127      
     33800   1541.3556      3261.2988      3261.2988     -3265.1134     -3265.1134     -157.27643      3985.296       3985.296       154.43008    
     33900   1545.9456      3623.6505      3623.6505      25833.719      25833.719     -157.30588      3985.296       3985.296       155.87452    
     34000   1550.3856      3368.0625      3368.0625      10977.237      10977.237     -157.30195      3985.296       3985.296       156.49668    
     34100   1554.9616      3279.0791      3279.0791      23690.86       23690.86      -157.35996      3985.296       3985.296       156.87644    
     34200   1559.3056      3390.7354      3390.7354      10562.556      10562.556     -157.36516      3985.296       3985.296       157.17265    
     34300   1563.9766      3487.4696      3487.4696     -4110.9255     -4110.9255     -157.33829      3985.296       3985.296       157.72134    
     34400   1568.4306      3989.5375      3989.5375      27063.311      27063.311     -157.37238      3985.296       3985.296       158.2035     
     34500   1572.6936      3562.4808      3562.4808      20025.694      20025.694     -157.31405      3985.296       3985.296       157.9093     
     34600   1576.8686      3507.4142      3507.4142      34269.701      34269.701     -157.32121      3985.296       3985.296       157.09816    
     34700   1581.1326      3379.925       3379.925       2187.5338      2187.5338     -157.34156      3985.296       3985.296       156.38334    
     34800   1585.4686      3206.2294      3206.2294      15351.576      15351.576     -157.39113      3985.296       3985.296       155.83425    
     34900   1589.9466      3210.3137      3210.3137      8448.5753      8448.5753     -157.3943       3985.296       3985.296       155.93332    
     35000   1594.4416      3580.4085      3580.4085      16499.464      16499.464     -157.40099      3985.296       3985.296       156.55942    
     35100   1598.5966      3447.3483      3447.3483      10427.207      10427.207     -157.34274      3985.296       3985.296       159.34098    
     35200   1602.8466      3463.5905      3463.5905      2836.4026      2836.4026     -157.30608      3985.296       3985.296       162.30522    
     35300   1606.9266      3313.7834      3313.7834      21882.675      21882.675     -157.2697       3985.296       3985.296       165.98659    
     35400   1611.3566      3591.5118      3591.5118      4081.0288      4081.0288     -157.32709      3985.296       3985.296       169.48057    
     35500   1615.8596      3511.957       3511.957       12540.132      12540.132     -157.38648      3985.296       3985.296       171.40155    
     35600   1620.2486      3345.9009      3345.9009      17965.952      17965.952     -157.36856      3985.296       3985.296       173.36111    
     35700   1624.5076      3516.0137      3516.0137      5437.2316      5437.2316     -157.35931      3985.296       3985.296       175.33176    
     35800   1628.5356      3431.9173      3431.9173      17824.843      17824.843     -157.32342      3985.296       3985.296       177.88748    
     35900   1632.8546      3441.4997      3441.4997     -1370.6172     -1370.6172     -157.32026      3985.296       3985.296       180.92385    
     36000   1636.9826      3529.5538      3529.5538      41282.331      41282.331     -157.33901      3985.296       3985.296       183.93953    
     36100   1641.2456      3434.9791      3434.9791      561.06725      561.06725     -157.34335      3985.296       3985.296       187.29746    
     36200   1645.6496      3271.1869      3271.1869      9895.8402      9895.8402     -157.38333      3985.296       3985.296       190.28182    
     36300   1649.7706      2967.3215      2967.3215      12128.711      12128.711     -157.37032      3985.296       3985.296       193.29498    
     36400   1653.8866      3165.752       3165.752       15480.096      15480.096     -157.34783      3985.296       3985.296       195.50226    
     36500   1658.0266      3845.2534      3845.2534      29588.839      29588.839     -157.39162      3985.296       3985.296       197.37712    
     36600   1662.4026      3674.5583      3674.5583      9911.9555      9911.9555     -157.35397      3985.296       3985.296       198.97077    
     36700   1666.6596      3429.7216      3429.7216      3000.9834      3000.9834     -157.32431      3985.296       3985.296       201.07303    
     36800   1670.8186      3271.6498      3271.6498      852.67246      852.67246     -157.34948      3985.296       3985.296       203.25545    
     36900   1675.3036      3036.1145      3036.1145      27148.542      27148.542     -157.36441      3985.296       3985.296       205.13529    
     37000   1679.8366      3465.644       3465.644       6999.2975      6999.2975     -157.39706      3985.296       3985.296       206.92276    
     37100   1684.0126      3429.1475      3429.1475      5818.0233      5818.0233     -157.35638      3985.296       3985.296       209.10185    
     37200   1688.3836      3514.8673      3514.8673      8146.2958      8146.2958     -157.35387      3985.296       3985.296       211.18431    
     37300   1692.9736      3691.1354      3691.1354      9671.2882      9671.2882     -157.36996      3985.296       3985.296       212.96913    
     37400   1697.7626      3300.3185      3300.3185      12565.193      12565.193     -157.30524      3985.296       3985.296       214.32518    
     37500   1702.1856      3808.2895      3808.2895      24864.255      24864.255     -157.32063      3985.296       3985.296       215.58839    
     37600   1706.4816      3681.3706      3681.3706      15477.24       15477.24      -157.27312      3985.296       3985.296       217.21887    
     37700   1710.5396      3436.5801      3436.5801      395.51532      395.51532     -157.29582      3985.296       3985.296       218.78103    
     37800   1714.7016      3535.1075      3535.1075      40613.21       40613.21      -157.35192      3985.296       3985.296       219.07228    
     37900   1719.0996      3289.4487      3289.4487     -1684.3852     -1684.3852     -157.32325      3985.296       3985.296       219.58274    
     38000   1723.2456      3443.6204      3443.6204      19744.236      19744.236     -157.33487      3985.296       3985.296       220.01691    
     38100   1727.3466      3297.9693      3297.9693      5251.5714      5251.5714     -157.2889       3985.296       3985.296       220.8852     
     38200   1731.5186      3745.8227      3745.8227      4597.4504      4597.4504     -157.28959      3985.296       3985.296       221.67251    
     38300   1735.5176      3712.9215      3712.9215      11416.575      11416.575     -157.27764      3985.296       3985.296       223.22326    
     38400   1739.5936      3519.5997      3519.5997      2764.446       2764.446      -157.32207      3985.296       3985.296       225.40145    
     38500   1743.6436      3464.7331      3464.7331      12047.935      12047.935     -157.34019      3985.296       3985.296       228.34017    
     38600   1748.0006      3532.1327      3532.1327      17072.047      17072.047     -157.35687      3985.296       3985.296       231.8786     
     38700   1752.5096      3681.9222      3681.9222      11139.48       11139.48      -157.37496      3985.296       3985.296       236.89918    
     38800   1757.0346      3427.461       3427.461       33023.612      33023.612     -157.31559      3985.296       3985.296       241.96205    
     38900   1761.4446      3684.2421      3684.2421      6395.5512      6395.5512     -157.30113      3985.296       3985.296       247.31093    
     39000   1766.0156      3935.2749      3935.2749     -3550.4505     -3550.4505     -157.32357      3985.296       3985.296       252.07836    
     39100   1770.3636      3429.8723      3429.8723      9364.6779      9364.6779     -157.33013      3985.296       3985.296       256.42276    
     39200   1774.7576      3441.086       3441.086       10247.328      10247.328     -157.35489      3985.296       3985.296       259.09199    
     39300   1779.2956      3646.5721      3646.5721     -473.27476     -473.27476     -157.37037      3985.296       3985.296       261.22594    
     39400   1783.5396      3683.367       3683.367       6058.6615      6058.6615     -157.35297      3985.296       3985.296       262.75732    
     39500   1787.8086      3735.6184      3735.6184      27096.628      27096.628     -157.33166      3985.296       3985.296       265.04555    
     39600   1792.0426      3914.4262      3914.4262     -133.87486     -133.87486     -157.33404      3985.296       3985.296       267.44967    
     39700   1796.7896      3791.7716      3791.7716      11001.465      11001.465     -157.34081      3985.296       3985.296       269.52659    
     39800   1801.0676      3212.816       3212.816       3775.0164      3775.0164     -157.32302      3985.296       3985.296       271.91103    
     39900   1805.3746      3432.6161      3432.6161      13281.432      13281.432     -157.3665       3985.296       3985.296       273.54846    
     40000   1809.52        3326.6496      3326.6496      5083.4613      5083.4613     -157.33169      3985.296       3985.296       274.7303     
     40100   1814.2776      3736.2798      3736.2798      19166.192      19166.192     -157.3171       3985.296       3985.296       277.11497    
     40200   1818.5326      3446.5993      3446.5993     -3151.1181     -3151.1181     -157.27033      3985.296       3985.296       280.30377    
     40300   1823.0656      3557.8307      3557.8307      21817.731      21817.731     -157.31614      3985.296       3985.296       283.50404    
     40400   1827.4026      3502.0187      3502.0187      16872.646      16872.646     -157.34536      3985.296       3985.296       286.03253    
     40500   1831.6056      3374.1671      3374.1671      21594.55       21594.55      -157.35021      3985.296       3985.296       287.08568    
     40600   1835.8326      3356.1634      3356.1634      6485.2115      6485.2115     -157.34792      3985.296       3985.296       286.47806    
     40700   1840.0666      3637.1711      3637.1711      14468.529      14468.529     -157.32107      3985.296       3985.296       285.06082    
     40800   1845.0256      3723.8616      3723.8616      15471.747      15471.747     -157.29796      3985.296       3985.296       283.35505    
     40900   1849.5646      3402.0498      3402.0498      21492.145      21492.145     -157.28452      3985.296       3985.296       281.32797    
     41000   1854.2587      3362.4697      3362.4697      17668.094      17668.094     -157.32261      3985.296       3985.296       279.03885    
     41100   1858.8927      3360.0605      3360.0605     -805.75365     -805.75365     -157.34227      3985.296       3985.296       277.56382    
     41200   1863.3397      3370.4581      3370.4581     -1528.1183     -1528.1183     -157.33078      3985.296       3985.296       277.95295    
     41300   1867.7236      3891.468       3891.468       13740.876      13740.876     -157.30458      3985.296       3985.296       278.00912    
     41400   1872.0486      3851.7073      3851.7073      6067.8996      6067.8996     -157.31004      3985.296       3985.296       278.20806    
     41500   1876.4876      3485.7627      3485.7627      5911.5164      5911.5164     -157.31586      3985.296       3985.296       277.81231    
     41600   1881.0066      3403.2945      3403.2945      18726.467      18726.467     -157.33795      3985.296       3985.296       276.59952    
     41700   1885.2637      3389.4576      3389.4576      16018.877      16018.877     -157.35114      3985.296       3985.296       274.11762    
     41800   1889.4536      3725.5496      3725.5496      18070.656      18070.656     -157.37372      3985.296       3985.296       270.54493    
     41900   1893.7856      3557.5845      3557.5845      18276.452      18276.452     -157.27956      3985.296       3985.296       266.86735    
     42000   1898.0406      3606.7595      3606.7595      14594.777      14594.777     -157.28742      3985.296       3985.296       259.87394    
     42100   1902.7846      3690.5319      3690.5319      10212.832      10212.832     -157.34448      3985.296       3985.296       252.74252    
     42200   1907.0406      3315.2989      3315.2989      20123.187      20123.187     -157.31946      3985.296       3985.296       247.15925    
     42300   1911.6626      3377.4078      3377.4078      11861.988      11861.988     -157.32155      3985.296       3985.296       244.17043    
     42400   1915.7726      3343.5903      3343.5903      2816.1215      2816.1215     -157.29023      3985.296       3985.296       240.90581    
     42500   1919.7566      3597.1035      3597.1035      29555.189      29555.189     -157.28379      3985.296       3985.296       235.90845    
     42600   1923.9586      3991.5378      3991.5378     -820.24929     -820.24929     -157.27         3985.296       3985.296       229.9942     
     42700   1928.2716      3860.8807      3860.8807      21238.825      21238.825     -157.27016      3985.296       3985.296       223.73839    
     42800   1932.3566      3408.7807      3408.7807      15424.078      15424.078     -157.29145      3985.296       3985.296       216.88655    
     42900   1936.5106      3446.391       3446.391       20135.95       20135.95      -157.31839      3985.296       3985.296       210.10255    
     43000   1940.7426      3739.772       3739.772       7658.0019      7658.0019     -157.38261      3985.296       3985.296       201.77028    
     43100   1945.3326      3295.6624      3295.6624      11629.411      11629.411     -157.34351      3985.296       3985.296       194.75673    
     43200   1949.7416      3050.6009      3050.6009      27648.409      27648.409     -157.28019      3985.296       3985.296       188.6784     
     43300   1953.7846      3801.7269      3801.7269     -7818.6432     -7818.6432     -157.31776      3985.296       3985.296       183.80203    
     43400   1957.9176      3485.1627      3485.1627      33606.511      33606.511     -157.27661      3985.296       3985.296       178.88585    
     43500   1962.1976      3672.605       3672.605      -2253.6791     -2253.6791     -157.33213      3985.296       3985.296       177.19415    
     43600   1966.3556      3490.5509      3490.5509      16294.387      16294.387     -157.34655      3985.296       3985.296       175.51805    
     43700   1970.4116      3487.3321      3487.3321      18713.463      18713.463     -157.34951      3985.296       3985.296       174.26299    
     43800   1974.7216      3666.7798      3666.7798      9849.8896      9849.8896     -157.35627      3985.296       3985.296       172.32396    
     43900   1978.9616      3683.9259      3683.9259      14229.823      14229.823     -157.33806      3985.296       3985.296       168.75273    
     44000   1983.2436      3392.2214      3392.2214      16249.055      16249.055     -157.28724      3985.296       3985.296       164.44521    
     44100   1988.1906      3956.061       3956.061       22906.639      22906.639     -157.35538      3985.296       3985.296       160.03257    
     44200   1992.2346      3189.2292      3189.2292      9389.1986      9389.1986     -157.29337      3985.296       3985.296       156.32914    
     44300   1996.5006      3534.384       3534.384       33584.362      33584.362     -157.37167      3985.296       3985.296       153.9661     
     44400   2000.7156      3273.7236      3273.7236      12288.833      12288.833     -157.34775      3985.296       3985.296       153.25611    
     44500   2005.0466      3498.5101      3498.5101      32165.564      32165.564     -157.3231       3985.296       3985.296       153.54695    
     44600   2009.5557      3470.5054      3470.5054      20503.915      20503.915     -157.27932      3985.296       3985.296       155.62797    
     44700   2013.8266      3656.4729      3656.4729      20167.06       20167.06      -157.31407      3985.296       3985.296       159.25106    
     44800   2018.1166      3429.8774      3429.8774      16607.019      16607.019     -157.31929      3985.296       3985.296       163.44047    
     44900   2022.3376      3128.4023      3128.4023      13549.641      13549.641     -157.3088       3985.296       3985.296       165.70788    
     45000   2026.4176      3610.7718      3610.7718      25501.465      25501.465     -157.41634      3985.296       3985.296       167.71028    
     45100   2030.5496      3276.3684      3276.3684      2751.7454      2751.7454     -157.41064      3985.296       3985.296       169.69318    
     45200   2034.9266      3268.0299      3268.0299      5472.392       5472.392      -157.36041      3985.296       3985.296       171.93442    
     45300   2039.4506      3315.497       3315.497       35094.489      35094.489     -157.32352      3985.296       3985.296       174.00605    
     45400   2043.8558      3335.2392      3335.2392     -2331.1673     -2331.1673     -157.30092      3985.296       3985.296       176.70071    
     45500   2048.1896      3698.8866      3698.8866      30860.46       30860.46      -157.32282      3985.296       3985.296       179.76076    
     45600   2052.3546      3944.2693      3944.2693      7276.2357      7276.2357     -157.3401       3985.296       3985.296       184.11742    
     45700   2057.0196      3726.6768      3726.6768      20558.486      20558.486     -157.33379      3985.296       3985.296       189.21864    
     45800   2061.3566      3605.4425      3605.4425      12508.173      12508.173     -157.3816       3985.296       3985.296       193.26284    
     45900   2065.6606      3294.5194      3294.5194      22813.669      22813.669     -157.35918      3985.296       3985.296       196.96123    
     46000   2070.0096      3569.0498      3569.0498      20611.936      20611.936     -157.36347      3985.296       3985.296       201.4346     
     46100   2074.2356      3705.4223      3705.4223      14610.735      14610.735     -157.33505      3985.296       3985.296       205.98467    
     46200   2078.4916      3644.2009      3644.2009      31294.147      31294.147     -157.32051      3985.296       3985.296       210.68858    
     46300   2082.8026      3646.1315      3646.1315      9483.5435      9483.5435     -157.33859      3985.296       3985.296       216.54292    
     46400   2086.9376      3384.8027      3384.8027      12515.827      12515.827     -157.31341      3985.296       3985.296       223.25919    
     46500   2090.9906      3277.6242      3277.6242      9661.1186      9661.1186     -157.30713      3985.296       3985.296       231.15109    
     46600   2095.1806      3493.6487      3493.6487      29582.59       29582.59      -157.32235      3985.296       3985.296       239.61943    
     46700   2099.2806      3684.6029      3684.6029      24584.733      24584.733     -157.31567      3985.296       3985.296       247.89448    
     46800   2103.3496      3926.943       3926.943       3555.7154      3555.7154     -157.32265      3985.296       3985.296       254.56408    
     46900   2107.2866      3585.9474      3585.9474      10969.54       10969.54      -157.31068      3985.296       3985.296       260.09934    
     47000   2111.4326      3449.3778      3449.3778      6310.1566      6310.1566     -157.3548       3985.296       3985.296       266.74099    
     47100   2115.8236      3252.3141      3252.3141      15601.161      15601.161     -157.33967      3985.296       3985.296       272.99679    
     47200   2119.9706      3501.9584      3501.9584      2423.7014      2423.7014     -157.34807      3985.296       3985.296       280.19656    
     47300   2124.2706      3690.7311      3690.7311      43529.488      43529.488     -157.31932      3985.296       3985.296       288.15562    
     47400   2128.3376      3702.4301      3702.4301      3980.2314      3980.2314     -157.31207      3985.296       3985.296       295.01232    
     47500   2132.4086      3507.1268      3507.1268      25001.481      25001.481     -157.30816      3985.296       3985.296       300.55998    
     47600   2136.6316      3592.2109      3592.2109      8031.4053      8031.4053     -157.34794      3985.296       3985.296       304.49757    
     47700   2140.7436      3255.2355      3255.2355      18015.964      18015.964     -157.33177      3985.296       3985.296       308.54897    
     47800   2144.7966      3380.8451      3380.8451      27372.452      27372.452     -157.36377      3985.296       3985.296       313.75195    
     47900   2148.8886      3391.7428      3391.7428      7005.2741      7005.2741     -157.35918      3985.296       3985.296       319.59223    
     48000   2153.1146      3558.4513      3558.4513      3737.2923      3737.2923     -157.33858      3985.296       3985.296       325.62156    
     48100   2157.2816      3513.7078      3513.7078      4169.2427      4169.2427     -157.29122      3985.296       3985.296       331.90907    
     48200   2161.3386      3859.0805      3859.0805      23024.939      23024.939     -157.33324      3985.296       3985.296       338.29923    
     48300   2165.6486      3551.9656      3551.9656      15904.146      15904.146     -157.34831      3985.296       3985.296       345.45288    
     48400   2169.9186      3405.81        3405.81        11741.101      11741.101     -157.36829      3985.296       3985.296       351.79339    
     48500   2174.7756      3418.1106      3418.1106      5300.4654      5300.4654     -157.35647      3985.296       3985.296       356.46002    
     48600   2179.1236      3585.2309      3585.2309      30306.561      30306.561     -157.34629      3985.296       3985.296       360.41596    
     48700   2183.5586      3397.9012      3397.9012      11368.273      11368.273     -157.30591      3985.296       3985.296       365.27773    
     48800   2187.7406      3481.1116      3481.1116      11467.589      11467.589     -157.32099      3985.296       3985.296       370.96726    
     48900   2191.8896      3420.76        3420.76        17060.896      17060.896     -157.36602      3985.296       3985.296       376.62147    
     49000   2196.2766      3138.7271      3138.7271      12595.136      12595.136     -157.37419      3985.296       3985.296       382.42205    
     49100   2200.9416      3429.2584      3429.2584      20931.717      20931.717     -157.37406      3985.296       3985.296       387.24828    
     49200   2205.3166      3689.6002      3689.6002      24454.913      24454.913     -157.36406      3985.296       3985.296       391.1102     
     49300   2209.5236      3563.629       3563.629       16489.661      16489.661     -157.32734      3985.296       3985.296       395.11963    
     49400   2213.8396      3626.2447      3626.2447      23008.811      23008.811     -157.3233       3985.296       3985.296       399.70966    
     49500   2218.3166      3448.2632      3448.2632      190.75129      190.75129     -157.3325       3985.296       3985.296       404.03304    
     49600   2222.6256      3034.2105      3034.2105      7470.1402      7470.1402     -157.34156      3985.296       3985.296       407.52788    
     49700   2227.0296      3600.5101      3600.5101      1356.8338      1356.8338     -157.40551      3985.296       3985.296       411.14113    
     49800   2231.6816      3534.0735      3534.0735      37057.874      37057.874     -157.34729      3985.296       3985.296       414.58022    
     49900   2235.7706      3413.3024      3413.3024      17848.301      17848.301     -157.31148      3985.296       3985.296       418.69304    
     50000   2240.0976      3560.6015      3560.6015      19607.038      19607.038     -157.32917      3985.296       3985.296       423.31485    
Loop time of 2240.1 on 128 procs for 50000 steps with 200 atoms

Performance: 1.928 ns/day, 12.445 hours/ns, 22.320 timesteps/s
59.2% CPU use with 128 MPI tasks x 1 OpenMP threads

MPI task timing breakdown:
Section |  min time  |  avg time  |  max time  |%varavg| %total
---------------------------------------------------------------
Pair    | 60.221     | 848.47     | 1808.9     |2117.0 | 37.88
Neigh   | 0.021985   | 0.04674    | 0.086808   |   7.9 |  0.00
Comm    | 403.39     | 1232.1     | 1931.3     |1475.0 | 55.00
Output  | 13.751     | 13.759     | 13.801     |   0.1 |  0.61
Modify  | 12.207     | 144.05     | 351.94     | 895.7 |  6.43
Other   |            | 1.661      |            |       |  0.07

Nlocal:         1.5625 ave           5 max           0 min
Histogram: 59 0 6 0 15 0 30 0 16 2
Nghost:        156.867 ave         171 max         135 min
Histogram: 1 4 2 11 15 20 29 28 16 2
Neighs:              0 ave           0 max           0 min
Histogram: 128 0 0 0 0 0 0 0 0 0
FullNghs:      63.5312 ave         252 max           0 min
Histogram: 63 7 3 9 19 9 9 3 3 3

Total # of neighbors = 8132
Ave neighs/atom = 40.66
Neighbor list builds = 1947
Dangerous builds = 0
unfix integrate

# Phase 2:
fix integrate all nvt temp 3500 1500 0.1
run 50000
WARNING: Proc sub-domain size < neighbor skin, could lead to lost atoms (src/domain.cpp:970)
Per MPI rank memory allocation (min/avg/max) = 4.341 | 4.341 | 4.342 Mbytes
   Step          CPU            Temp        f_TempAve        Press        f_PressAve    f_PEAve_Atom      Volume         f_vAve        c_MSD[4]   
     50000   0              3560.6015      3560.6015      19607.038      19607.038     -157.32917      3985.296       3985.296       423.31485    
     50100   4.2036517      3516.7179      3516.7179      965.54961      965.54961     -157.33693      3985.296       3985.296       428.06985    
     50200   8.7426599      3452.7755      3452.7755      4714.3179      4714.3179     -157.37285      3985.296       3985.296       432.24326    
     50300   12.919653      3359.2487      3359.2487      11145.696      11145.696     -157.39866      3985.296       3985.296       436.68102    
     50400   17.012662      3333.6588      3333.6588      10809.2        10809.2       -157.35637      3985.296       3985.296       439.30217    
     50500   21.029649      3419.2924      3419.2924      24121.438      24121.438     -157.31012      3985.296       3985.296       440.81007    
[...]
    237500   1657.6446      282.0629       282.0629       1111.8605      1111.8605     -157.90255      3985.296       3985.296       1100.7127    
    237600   1661.8906      283.17221      283.17221      3418.6127      3418.6127     -157.90343      3985.296       3985.296       1100.9617    
    237700   1666.2097      306.98128      306.98128     -4806.5812     -4806.5812     -157.90029      3985.296       3985.296       1101.2813    
    237800   1670.4376      313.38226      313.38226      482.97772      482.97772     -157.89866      3985.296       3985.296       1101.5216    
    237900   1675.0325      305.30324      305.30324      3432.73        3432.73       -157.8981       3985.296       3985.296       1101.8937    
    238000   1679.6375      307.02159      307.02159     -2871.8509     -2871.8509     -157.90089      3985.296       3985.296       1102.1372    
    238100   1684.2536      285.70144      285.70144      1133.064       1133.064      -157.90184      3985.296       3985.296       1102.7249    
    238200   1688.8676      268.87691      268.87691      3556.9105      3556.9105     -157.89993      3985.296       3985.296       1103.0406    
    238300   1693.5015      300.5644       300.5644       6152.4176      6152.4176     -157.89715      3985.296       3985.296       1103.4165    
    238400   1698.5716      296.28379      296.28379      5847.4211      5847.4211     -157.89582      3985.296       3985.296       1103.8214    
    238500   1703.9066      317.01394      317.01394     -1127.9592     -1127.9592     -157.90144      3985.296       3985.296       1104.0895    
    238600   1709.2476      292.5399       292.5399       4167.5964      4167.5964     -157.90137      3985.296       3985.296       1104.5209    
    238700   1714.6446      305.1687       305.1687       2040.7451      2040.7451     -157.90373      3985.296       3985.296       1105.0057    
    238800   1720.0416      315.34606      315.34606      7608.3378      7608.3378     -157.89964      3985.296       3985.296       1105.2813    
    238900   1725.3345      327.70168      327.70168     -1363.9963     -1363.9963     -157.89764      3985.296       3985.296       1105.7356    
    239000   1730.3925      313.38398      313.38398     -826.06758     -826.06758     -157.89847      3985.296       3985.296       1106.1949    
    239100   1735.3925      281.10504      281.10504      7140.2314      7140.2314     -157.89888      3985.296       3985.296       1106.7124    
    239200   1740.3746      281.54601      281.54601      2270.4607      2270.4607     -157.8996       3985.296       3985.296       1107.0717    
    239300   1745.3596      306.79219      306.79219      1405.4093      1405.4093     -157.90189      3985.296       3985.296       1107.3825    
    239400   1750.1725      297.83057      297.83057      686.2767       686.2767      -157.89694      3985.296       3985.296       1107.7507    
    239500   1754.9575      323.44378      323.44378      6720.0598      6720.0598     -157.895        3985.296       3985.296       1108.2688    
    239600   1759.3496      350.5937       350.5937       5274.004       5274.004      -157.90078      3985.296       3985.296       1108.8018    
    239700   1763.7446      311.76033      311.76033      1040.5561      1040.5561     -157.89896      3985.296       3985.296       1109.2297    
    239800   1768.1396      310.87589      310.87589      1240.6674      1240.6674     -157.90115      3985.296       3985.296       1109.7146    
    239900   1772.5395      305.75378      305.75378      1269.2101      1269.2101     -157.90279      3985.296       3985.296       1110.095     
    240000   1776.6435      274.53963      274.53963      7235.4772      7235.4772     -157.90016      3985.296       3985.296       1110.5243    
    240100   1780.7466      294.78367      294.78367      1295.8123      1295.8123     -157.90065      3985.296       3985.296       1110.9745    
    240200   1784.8315      305.44706      305.44706      182.03995      182.03995     -157.89705      3985.296       3985.296       1111.1692    
    240300   1788.9056      324.01478      324.01478     -2053.4171     -2053.4171     -157.89856      3985.296       3985.296       1111.0447    
    240400   1793.0495      290.86825      290.86825      3843.8546      3843.8546     -157.89821      3985.296       3985.296       1110.7776    
    240500   1797.1445      278.90782      278.90782      6338.4343      6338.4343     -157.90005      3985.296       3985.296       1110.6636    
    240600   1801.2435      296.15042      296.15042     -978.0013      -978.0013      -157.9017       3985.296       3985.296       1110.5794    
    240700   1805.3236      305.80479      305.80479     -1872.9075     -1872.9075     -157.90111      3985.296       3985.296       1110.5946    
    240800   1809.3987      313.5484       313.5484       4857.5836      4857.5836     -157.90004      3985.296       3985.296       1110.5214    
    240900   1813.4795      328.41571      328.41571     -2681.6183     -2681.6183     -157.89966      3985.296       3985.296       1110.2779    
    241000   1817.5536      326.31388      326.31388      1060.4654      1060.4654     -157.89648      3985.296       3985.296       1110.0597    
    241100   1821.6335      294.5603       294.5603      -3148.5781     -3148.5781     -157.89494      3985.296       3985.296       1109.733     
    241200   1826.0096      295.40524      295.40524      3044.1096      3044.1096     -157.89992      3985.296       3985.296       1109.4773    
    241300   1830.5406      290.07554      290.07554      5402.4708      5402.4708     -157.8999       3985.296       3985.296       1109.2064    
    241400   1835.0445      291.71605      291.71605     -1534.4798     -1534.4798     -157.89819      3985.296       3985.296       1109.2618    
    241500   1839.5696      312.20399      312.20399      9587.5827      9587.5827     -157.89594      3985.296       3985.296       1109.8053    
    241600   1844.0826      315.79037      315.79037     -761.63437     -761.63437     -157.89351      3985.296       3985.296       1110.3503    
    241700   1848.6005      321.84012      321.84012      7490.7261      7490.7261     -157.90183      3985.296       3985.296       1111.2316    
    241800   1853.1956      293.39814      293.39814     -390.8643      -390.8643      -157.9011       3985.296       3985.296       1112.1291    
    241900   1857.3516      298.81275      298.81275      3510.0839      3510.0839     -157.90127      3985.296       3985.296       1112.9539    
    242000   1861.4725      327.08325      327.08325      3920.0507      3920.0507     -157.90272      3985.296       3985.296       1113.6491    
    242100   1865.6725      283.26496      283.26496     -3378.9351     -3378.9351     -157.89449      3985.296       3985.296       1114.4679    
    242200   1869.8135      320.1917       320.1917       5470.4525      5470.4525     -157.89799      3985.296       3985.296       1115.3824    
    242300   1873.9476      329.84409      329.84409     -4837.6981     -4837.6981     -157.90378      3985.296       3985.296       1116.3124    
    242400   1878.1136      303.57114      303.57114      3812.602       3812.602      -157.90393      3985.296       3985.296       1117.2397    
    242500   1882.2305      294.59695      294.59695      6935.0146      6935.0146     -157.90224      3985.296       3985.296       1118.1818    
    242600   1886.3196      304.30835      304.30835     -496.86041     -496.86041     -157.89983      3985.296       3985.296       1119.1115    
    242700   1890.3985      299.14675      299.14675      922.22547      922.22547     -157.89518      3985.296       3985.296       1120.0543    
    242800   1894.4635      314.51907      314.51907     -4008.5816     -4008.5816     -157.89781      3985.296       3985.296       1120.9452    
    242900   1898.5575      306.5392       306.5392       6361.3086      6361.3086     -157.8989       3985.296       3985.296       1121.7937    
    243000   1902.6615      302.74584      302.74584      1271.1684      1271.1684     -157.90122      3985.296       3985.296       1122.6074    
    243100   1906.7925      295.93076      295.93076     -2796.8774     -2796.8774     -157.90224      3985.296       3985.296       1123.4785    
    243200   1910.9345      280.92593      280.92593      7624.3598      7624.3598     -157.89907      3985.296       3985.296       1124.3477    
    243300   1915.1426      332.45439      332.45439     -17.838989     -17.838989     -157.89972      3985.296       3985.296       1125.3716    
    243400   1919.3026      280.8318       280.8318      -2873.9217     -2873.9217     -157.89237      3985.296       3985.296       1126.474     
    243500   1923.4497      298.17853      298.17853      3202.7193      3202.7193     -157.89802      3985.296       3985.296       1127.3239    
    243600   1927.5955      293.65536      293.65536     -3249.6652     -3249.6652     -157.90094      3985.296       3985.296       1128.1848    
    243700   1932.1536      292.06085      292.06085      5009.9963      5009.9963     -157.90036      3985.296       3985.296       1128.988     
    243800   1936.8556      314.71         314.71         5709.4897      5709.4897     -157.90214      3985.296       3985.296       1129.8944    
    243900   1941.5485      310.04333      310.04333      6969.3881      6969.3881     -157.89951      3985.296       3985.296       1130.7691    
    244000   1946.2586      324.69214      324.69214     -1874.1792     -1874.1792     -157.8982       3985.296       3985.296       1131.7896    
    244100   1950.9866      347.06822      347.06822     -1727.9271     -1727.9271     -157.89691      3985.296       3985.296       1132.8969    
    244200   1955.7196      307.56515      307.56515      4687.7624      4687.7624     -157.89628      3985.296       3985.296       1133.9396    
    244300   1960.4656      310.33012      310.33012      2028.2405      2028.2405     -157.90097      3985.296       3985.296       1134.8919    
    244400   1965.2177      277.62776      277.62776      1939.6407      1939.6407     -157.89841      3985.296       3985.296       1135.7823    
    244500   1969.9245      304.44446      304.44446      2429.9895      2429.9895     -157.90164      3985.296       3985.296       1136.6592    
    244600   1974.6325      316.0497       316.0497       6796.4199      6796.4199     -157.90022      3985.296       3985.296       1137.6338    
    244700   1979.4396      337.67552      337.67552      6703.0993      6703.0993     -157.89936      3985.296       3985.296       1138.5715    
    244800   1984.1766      305.55652      305.55652      4807.3648      4807.3648     -157.89501      3985.296       3985.296       1139.6282    
    244900   1988.8906      295.2069       295.2069      -5356.503      -5356.503      -157.90034      3985.296       3985.296       1140.675     
    245000   1993.5885      282.64458      282.64458      144.70778      144.70778     -157.90063      3985.296       3985.296       1141.5761    
    245100   1998.2866      299.50974      299.50974      1376.4416      1376.4416     -157.90131      3985.296       3985.296       1142.4742    
    245200   2002.9945      306.38077      306.38077      19.861585      19.861585     -157.8987       3985.296       3985.296       1143.3949    
    245300   2007.6926      333.50094      333.50094      2207.5933      2207.5933     -157.89928      3985.296       3985.296       1144.4013    
    245400   2012.3996      319.38608      319.38608      8129.5657      8129.5657     -157.894        3985.296       3985.296       1145.4439    
    245500   2016.5186      315.73379      315.73379      5723.4717      5723.4717     -157.89579      3985.296       3985.296       1146.5749    
    245600   2020.5715      311.28858      311.28858      4773.9368      4773.9368     -157.90093      3985.296       3985.296       1147.5559    
    245700   2024.6275      278.38266      278.38266     -896.05648     -896.05648     -157.89863      3985.296       3985.296       1148.5613    
    245800   2028.6735      300.08524      300.08524      3044.5315      3044.5315     -157.90137      3985.296       3985.296       1149.4531    
    245900   2032.7116      312.75774      312.75774      5427.7036      5427.7036     -157.89947      3985.296       3985.296       1150.3963    
    246000   2036.7406      338.3671       338.3671      -1166.3555     -1166.3555     -157.89876      3985.296       3985.296       1151.2866    
    246100   2040.8735      313.75447      313.75447      3007.6566      3007.6566     -157.89826      3985.296       3985.296       1151.7364    
    246200   2045.0215      284.15685      284.15685     -1483.186      -1483.186      -157.8994       3985.296       3985.296       1152.1889    
    246300   2049.1655      300.99808      300.99808      5816.0185      5816.0185     -157.90152      3985.296       3985.296       1152.5554    
    246400   2053.2765      299.9483       299.9483       3973.6738      3973.6738     -157.8995       3985.296       3985.296       1152.9926    
    246500   2057.3646      328.04835      328.04835      800.66563      800.66563     -157.90029      3985.296       3985.296       1153.4331    
    246600   2061.5365      319.27339      319.27339      2547.1         2547.1        -157.89876      3985.296       3985.296       1153.8659    
    246700   2065.6985      285.31048      285.31048     -4225.1993     -4225.1993     -157.8999       3985.296       3985.296       1154.1939    
    246800   2069.8855      269.49604      269.49604      6419.7276      6419.7276     -157.90033      3985.296       3985.296       1154.6315    
    246900   2074.0495      301.54261      301.54261     -786.44736     -786.44736     -157.90277      3985.296       3985.296       1155.0312    
    247000   2078.1745      305.85772      305.85772      472.26239      472.26239     -157.8991       3985.296       3985.296       1155.4775    
    247100   2082.3465      324.64746      324.64746     -2868.1344     -2868.1344     -157.90041      3985.296       3985.296       1155.9404    
    247200   2086.5386      304.26121      304.26121     -5123.2727     -5123.2727     -157.8989       3985.296       3985.296       1156.4003    
    247300   2090.6636      295.27635      295.27635      4466.9854      4466.9854     -157.8994       3985.296       3985.296       1156.8081    
    247400   2094.8406      304.37261      304.37261      4744.9223      4744.9223     -157.90206      3985.296       3985.296       1157.178     
    247500   2098.9885      296.33634      296.33634      819.72338      819.72338     -157.90314      3985.296       3985.296       1157.5799    
    247600   2103.2626      286.57979      286.57979      3098.3207      3098.3207     -157.90485      3985.296       3985.296       1158.0332    
    247700   2107.4836      273.36622      273.36622     -2104.9473     -2104.9473     -157.90131      3985.296       3985.296       1158.5305    
    247800   2111.7077      290.61255      290.61255     -2840.4108     -2840.4108     -157.89846      3985.296       3985.296       1158.8633    
    247900   2115.9366      320.83877      320.83877      5670.6809      5670.6809     -157.9008       3985.296       3985.296       1159.3946    
    248000   2120.1736      290.82844      290.82844      1300.5342      1300.5342     -157.89726      3985.296       3985.296       1160.0141    
    248100   2124.3486      281.98649      281.98649     -346.31759     -346.31759     -157.8988       3985.296       3985.296       1160.9042    
    248200   2128.5746      275.92539      275.92539      1654.5064      1654.5064     -157.90284      3985.296       3985.296       1161.8763    
    248300   2132.7206      278.15285      278.15285      6072.4581      6072.4581     -157.90251      3985.296       3985.296       1162.7796    
    248400   2136.8696      289.63748      289.63748      7891.3403      7891.3403     -157.89984      3985.296       3985.296       1163.7305    
    248500   2140.9555      317.68897      317.68897      5107.0485      5107.0485     -157.90208      3985.296       3985.296       1164.7201    
    248600   2145.0775      319.37558      319.37558      1311.7875      1311.7875     -157.90183      3985.296       3985.296       1165.6849    
    248700   2149.2695      293.15187      293.15187      2200.5697      2200.5697     -157.89927      3985.296       3985.296       1166.6856    
    248800   2153.4926      298.68661      298.68661      6005.2746      6005.2746     -157.90241      3985.296       3985.296       1167.6777    
    248900   2157.6126      271.88947      271.88947      6213.2208      6213.2208     -157.90172      3985.296       3985.296       1168.6126    
    249000   2161.6966      287.76803      287.76803      4468.3343      4468.3343     -157.9026       3985.296       3985.296       1169.5911    
    249100   2165.8106      315.26264      315.26264      2612.6802      2612.6802     -157.90047      3985.296       3985.296       1170.9272    
    249200   2169.8725      303.80732      303.80732      1643.3123      1643.3123     -157.8979       3985.296       3985.296       1172.507     
    249300   2173.9146      294.07907      294.07907      3164.7137      3164.7137     -157.89776      3985.296       3985.296       1174.1314    
    249400   2177.9746      297.62859      297.62859      2542.4534      2542.4534     -157.90109      3985.296       3985.296       1176.0484    
    249500   2182.0455      284.15007      284.15007      7515.8763      7515.8763     -157.90385      3985.296       3985.296       1177.9691    
    249600   2186.1476      289.84061      289.84061      3195.7249      3195.7249     -157.90324      3985.296       3985.296       1179.8916    
    249700   2190.2706      276.13952      276.13952     -3812.0641     -3812.0641     -157.89606      3985.296       3985.296       1181.9872    
    249800   2194.3776      319.36365      319.36365      7102.4754      7102.4754     -157.9007       3985.296       3985.296       1184.1577    
    249900   2198.4946      299.3943       299.3943       2970.1762      2970.1762     -157.89881      3985.296       3985.296       1186.2273    
    250000   2202.6105      296.92606      296.92606      5882.1282      5882.1282     -157.9013       3985.296       3985.296       1188.2033    
Loop time of 2202.61 on 128 procs for 50000 steps with 200 atoms

Performance: 1.961 ns/day, 12.237 hours/ns, 22.700 timesteps/s
59.2% CPU use with 128 MPI tasks x 1 OpenMP threads

MPI task timing breakdown:
Section |  min time  |  avg time  |  max time  |%varavg| %total
---------------------------------------------------------------
Pair    | 0.16634    | 813.49     | 1906.8     |2500.1 | 36.93
Neigh   | 0.00094872 | 0.0023587  | 0.0039938  |   1.4 |  0.00
Comm    | 261.8      | 1293       | 2144.6     |1837.6 | 58.70
Output  | 13.855     | 13.863     | 13.876     |   0.1 |  0.63
Modify  | 13.645     | 81.01      | 320.74     | 832.4 |  3.68
Other   |            | 1.251      |            |       |  0.06

Nlocal:         1.5625 ave           5 max           0 min
Histogram: 62 0 7 0 14 0 18 0 24 3
Nghost:        157.641 ave         174 max         130 min
Histogram: 4 1 10 8 9 21 22 18 22 13
Neighs:              0 ave           0 max           0 min
Histogram: 128 0 0 0 0 0 0 0 0 0
FullNghs:      66.0312 ave         271 max           0 min
Histogram: 63 7 4 10 18 12 6 4 3 1

Total # of neighbors = 8452
Ave neighs/atom = 42.26
Neighbor list builds = 83
Dangerous builds = 0
unfix integrate

# The above script has achieved the target SOAP similarity. The melting temperatures and cooling rates have been adjusted to achieve the desired structure.
Total wall time: 3:03:13
